 -30.   10104563.
 -29.8099995   10106648.
 -29.6200008   10108753.
 -29.4300003   10110866.
 -29.2399998   10112975.
 -29.0499992   10115073.
 -28.8600006   10117156.
 -28.6700001   10119225.
 -28.4799995   10121284.
 -28.2900009   10123342.
 -28.1000004   10125407.
 -27.9099998   10127486.
 -27.7199993   10129583.
 -27.5300007   10131687.
 -27.3400002   10133798.
 -27.1499996   10135905.
 -26.9599991   10138001.
 -26.7700005   10140079.
 -26.5799999   10142141.
 -26.3899994   10144194.
 -26.2000008   10146239.
 -26.0100002   10148288.
 -25.8199997   10150345.
 -25.6299992   10152418.
 -25.4400005   10154503.
 -25.25   10156595.
 -25.0599995   10158691.
 -24.8700008   10160778.
 -24.6800003   10162856.
 -24.4899998   10164918.
 -24.2999992   10166968.
 -24.1100006   10169008.
 -23.9200001   10171049.
 -23.7299995   10173093.
 -23.5400009   10175149.
 -23.3500004   10177217.
 -23.1599998   10179296.
 -22.9699993   10181382.
 -22.7800007   10183468.
 -22.5900002   10185544.
 -22.3999996   10187611.
 -22.2099991   10189664.
 -22.0200005   10191708.
 -21.8299999   10193749.
 -21.6399994   10195792.
 -21.4500008   10197844.
 -21.2600002   10199907.
 -21.0699997   10201981.
 -20.8799992   10204064.
 -20.6900005   10206149.
 -20.5   10208228.
 -20.3099995   10210295.
 -20.1200008   10212349.
 -19.9300003   10214390.
 -19.7399998   10216425.
 -19.5499992   10218460.
 -19.3600006   10220499.
 -19.1700001   10222548.
 -18.9799995   10224606.
 -18.7900009   10226673.
 -18.6000004   10228742.
 -18.4099998   10230807.
 -18.2199993   10232864.
 -18.0300007   10234908.
 -17.8400002   10236941.
 -17.6499996   10238966.
 -17.4599991   10240990.
 -17.2700005   10243019.
 -17.0799999   10245051.
 -16.8899994   10247097.
 -16.7000008   10249149.
 -16.5100002   10251205.
 -16.3199997   10253263.
 -16.1299992   10255311.
 -15.9399996   10257350.
 -15.75   10259380.
 -15.5600004   10261399.
 -15.3699999   10263411.
 -15.1800003   10265424.
 -14.9899998   10267438.
 -14.8000002   10269458.
 -14.6099997   10271484.
 -14.4200001   10273513.
 -14.2299995   10275541.
 -14.04   10277570.
 -13.8500004   10279591.
 -13.6599998   10281605.
 -13.4700003   10283609.
 -13.2799997   10285609.
 -13.0900002   10287606.
 -12.8999996   10289606.
 -12.71   10291608.
 -12.5200005   10293619.
 -12.3299999   10295637.
 -12.1400003   10297660.
 -11.9499998   10299688.
 -11.7600002   10301715.
 -11.5699997   10303738.
 -11.3800001   10305756.
 -11.1899996   10307765.
 -11.   10309765.
 -10.8100004   10311759.
 -10.6199999   10313753.
 -10.4300003   10315748.
 -10.2399998   10317753.
 -10.0500002   10319766.
 -9.85999966   10321783.
 -9.67000008   10323803.
 -9.47999954   10325818.
 -9.28999996   10327827.
 -9.10000038   10329823.
 -8.90999985   10331805.
 -8.72000027   10333776.
 -8.52999973   10335742.
 -8.34000015   10337709.
 -8.14999962   10339687.
 -7.96000004   10341676.
 -7.76999998   10343678.
 -7.57999992   10345688.
 -7.38999987   10347698.
 -7.19999981   10349703.
 -7.01000023   10351696.
 -6.82000017   10353679.
 -6.63000011   10355649.
 -6.44000006   10357614.
 -6.25   10359579.
 -6.05999994   10361555.
 -5.86999989   10363543.
 -5.67999983   10365548.
 -5.48999977   10367566.
 -5.30000019   10369584.
 -5.11000013   10371598.
 -4.92000008   10373599.
 -4.73000002   10375586.
 -4.53999996   10377559.
 -4.3499999   10379521.
 -4.15999985   10381478.
 -3.97000003   10383441.
 -3.77999997   10385414.
 -3.58999991   10387401.
 -3.4000001   10389400.
 -3.21000004   10391405.
 -3.01999998   10393407.
 -2.82999992   10395401.
 -2.6400001   10397382.
 -2.45000005   10399350.
 -2.25999999   10401309.
 -2.06999993   10403264.
 -1.88   10405216.
 -1.69000006   10407178.
 -1.5   10409151.
 -1.30999994   10411137.
 -1.12   10413137.
 -0.930000007   10415140.
 -0.74000001   10417141.
 -0.550000012   10419131.
 -0.360000014   10421110.
 -0.170000002   10423078.
 1.999999955E-2   10425037.
 0.209999993   10426997.
 0.400000006   10428958.
 0.589999974   10430932.
 0.779999971   10432913.
 0.970000029   10434907.
 1.15999997   10436906.
 1.35000002   10438904.
 1.53999996   10440889.
 1.73000002   10442862.
 1.91999996   10444818.
 2.1099999   10446761.
 2.29999995   10448703.
 2.49000001   10450645.
 2.68000007   10452595.
 2.86999989   10454554.
 3.05999994   10456521.
 3.25   10458496.
 3.44000006   10460477.
 3.63000011   10462453.
 3.81999993   10464421.
 4.01000023   10466375.
 4.19999981   10468318.
 4.38999987   10470253.
 4.57999992   10472190.
 4.76999998   10474132.
 4.96000004   10476085.
 5.1500001   10478050.
 5.34000015   10480028.
 5.53000021   10482014.
 5.71999979   10484001.
 5.90999985   10485981.
 6.0999999   10487948.
 6.28999996   10489897.
 6.48000002   10491836.
 6.67000008   10493764.
 6.86000013   10495695.
 7.05000019   10497634.
 7.23999977   10499586.
 7.42999983   10501551.
 7.61999989   10503522.
 7.80999994   10505497.
 8.   10507469.
 8.18999958   10509431.
 8.38000011   10511380.
 8.56999969   10513312.
 8.76000023   10515233.
 8.94999981   10517148.
 9.14000034   10519064.
 9.32999992   10520989.
 9.52000046   10522931.
 9.71000004   10524888.
 9.89999962   10526850.
 10.0900002   10528820.
 10.2799997   10530785.
 10.4700003   10532740.
 10.6599998   10534682.
 10.8500004   10536612.
 11.04   10538537.
 11.2299995   10540463.
 11.4200001   10542397.
 11.6099997   10544347.
 11.8000002   10546311.
 11.9899998   10548282.
 12.1800003   10550257.
 12.3699999   10552225.
 12.5600004   10554179.
 12.75   10556118.
 12.9399996   10558042.
 13.1300001   10559950.
 13.3199997   10561854.
 13.5100002   10563757.
 13.6999998   10565665.
 13.8900003   10567583.
 14.0799999   10569511.
 14.2700005   10571449.
 14.46   10573391.
 14.6499996   10575327.
 14.8400002   10577253.
 15.0299997   10579167.
 15.2200003   10581067.
 15.4099998   10582955.
 15.6000004   10584841.
 15.79   10586732.
 15.9799995   10588635.
 16.1700001   10590559.
 16.3600006   10592499.
 16.5499992   10594450.
 16.7399998   10596404.
 16.9300003   10598348.
 17.1200008   10600278.
 17.3099995   10602187.
 17.5   10604086.
 17.6900005   10605977.
 17.8799992   10607873.
 18.0699997   10609784.
 18.2600002   10611712.
 18.4500008   10613655.
 18.6399994   10615608.
 18.8299999   10617557.
 19.0200005   10619492.
 19.2099991   10621404.
 19.3999996   10623294.
 19.5900002   10625168.
 19.7800007   10627039.
 19.9699993   10628915.
 20.1599998   10630805.
 20.3500004   10632712.
 20.5400009   10634635.
 20.7299995   10636563.
 20.9200001   10638493.
 21.1100006   10640415.
 21.2999992   10642324.
 21.4899998   10644213.
 21.6800003   10646087.
 21.8700008   10647954.
 22.0599995   10649817.
 22.25   10651691.
 22.4400005   10653581.
 22.6299992   10655485.
 22.8199997   10657405.
 23.0100002   10659328.
 23.2000008   10661249.
 23.3899994   10663158.
 23.5799999   10665047.
 23.7700005   10666918.
 23.9599991   10668773.
 24.1499996   10670624.
 24.3400002   10672483.
 24.5300007   10674353.
 24.7199993   10676244.
 24.9099998   10678150.
 25.1000004   10680062.
 25.2900009   10681972.
 25.4799995   10683868.
 25.6700001   10685749.
 25.8600006   10687612.
 26.0499992   10689463.
 26.2399998   10691311.
 26.4300003   10693163.
 26.6200008   10695028.
 26.8099995   10696907.
