 -30.   2609031.75
 -29.8099995   2609584.
 -29.6200008   2610148.
 -29.4300003   2610721.25
 -29.2399998   2611291.5
 -29.0499992   2611853.75
 -28.8600006   2612404.
 -28.6700001   2612941.
 -28.4799995   2613471.5
 -28.2900009   2614005.
 -28.1000004   2614543.
 -27.9099998   2615093.5
 -27.7199993   2615655.
 -27.5300007   2616224.75
 -27.3400002   2616799.75
 -27.1499996   2617373.
 -26.9599991   2617938.75
 -26.7700005   2618494.75
 -26.5799999   2619038.75
 -26.3899994   2619572.5
 -26.2000008   2620103.25
 -26.0100002   2620633.75
 -25.8199997   2621173.75
 -25.6299992   2621722.5
 -25.4400005   2622282.
 -25.25   2622847.5
 -25.0599995   2623418.
 -24.8700008   2623985.5
 -24.6800003   2624545.
 -24.4899998   2625094.
 -24.2999992   2625630.75
 -24.1100006   2626158.25
 -23.9200001   2626682.25
 -23.7299995   2627211.25
 -23.5400009   2627748.
 -23.3500004   2628295.25
 -23.1599998   2628852.5
 -22.9699993   2629413.5
 -22.7800007   2629975.5
 -22.5900002   2630529.5
 -22.3999996   2631071.25
 -22.2099991   2631597.75
 -22.0200005   2632114.5
 -21.8299999   2632621.5
 -21.6399994   2633130.5
 -21.4500008   2633644.25
 -21.2600002   2634167.
 -21.0699997   2634702.5
 -20.8799992   2635248.75
 -20.6900005   2635798.5
 -20.5   2636347.
 -20.3099995   2636888.25
 -20.1200008   2637420.
 -19.9300003   2637942.25
 -19.7399998   2638456.75
 -19.5499992   2638969.
 -19.3600006   2639486.
 -19.1700001   2640011.
 -18.9799995   2640548.25
 -18.7900009   2641096.5
 -18.6000004   2641653.5
 -18.4099998   2642214.25
 -18.2199993   2642770.75
 -18.0300007   2643320.
 -17.8400002   2643859.5
 -17.6499996   2644386.25
 -17.4599991   2644905.5
 -17.2700005   2645420.75
 -17.0799999   2645938.75
 -16.8899994   2646466.5
 -16.7000008   2647003.75
 -16.5100002   2647552.5
 -16.3199997   2648106.5
 -16.1299992   2648663.25
 -15.9399996   2649218.
 -15.75   2649761.25
 -15.5600004   2650293.75
 -15.3699999   2650817.25
 -15.1800003   2651336.
 -14.9899998   2651858.5
 -14.8000002   2652386.
 -14.6099997   2652924.25
 -14.4200001   2653471.25
 -14.2299995   2654020.
 -14.04   2654565.5
 -13.8500004   2655101.5
 -13.6599998   2655625.
 -13.4700003   2656135.75
 -13.2799997   2656635.5
 -13.0900002   2657133.75
 -12.8999996   2657635.5
 -12.71   2658148.75
 -12.5200005   2658677.
 -12.3299999   2659216.75
 -12.1400003   2659762.25
 -11.9499998   2660308.75
 -11.7600002   2660848.5
 -11.5699997   2661375.75
 -11.3800001   2661893.
 -11.1899996   2662404.25
 -11.   2662914.75
 -10.8100004   2663430.75
 -10.6199999   2663957.25
 -10.4300003   2664493.
 -10.2399998   2665035.5
 -10.0500002   2665580.
 -9.85999966   2666118.5
 -9.67000008   2666646.
 -9.47999954   2667164.75
 -9.28999996   2667675.5
 -9.10000038   2668185.75
 -8.90999985   2668700.25
 -8.72000027   2669222.75
 -8.52999973   2669754.
 -8.34000015   2670288.5
 -8.14999962   2670827.
 -7.96000004   2671366.25
 -7.76999998   2671901.5
 -7.57999992   2672431.75
 -7.38999987   2672954.75
 -7.19999981   2673476.5
 -7.01000023   2673997.
 -6.82000017   2674520.25
 -6.63000011   2675045.5
 -6.44000006   2675574.75
 -6.25   2676105.5
 -6.05999994   2676638.5
 -5.86999989   2677175.5
 -5.67999983   2677713.25
 -5.48999977   2678252.75
 -5.30000019   2678790.75
 -5.11000013   2679326.
 -4.92000008   2679857.75
 -4.73000002   2680377.5
 -4.53999996   2680892.75
 -4.3499999   2681399.25
 -4.15999985   2681903.5
 -3.97000003   2682413.25
 -3.77999997   2682925.
 -3.58999991   2683450.
 -3.4000001   2683977.75
 -3.21000004   2684511.75
 -3.01999998   2685041.75
 -2.82999992   2685566.
 -2.6400001   2686079.25
 -2.45000005   2686584.25
 -2.25999999   2687087.5
 -2.06999993   2687593.
 -1.88   2688108.25
 -1.69000006   2688629.75
 -1.5   2689160.25
 -1.30999994   2689692.75
 -1.12   2690228.75
 -0.930000007   2690761.5
 -0.74000001   2691287.75
 -0.550000012   2691807.25
 -0.360000014   2692319.
 -0.170000002   2692827.5
 1.999999955E-2   2693338.5
 0.209999993   2693850.5
 0.400000006   2694369.
 0.589999974   2694894.
 0.779999971   2695424.5
 0.970000029   2695958.
 1.15999997   2696495.
 1.35000002   2697028.75
 1.53999996   2697558.75
 1.73000002   2698081.25
 1.91999996   2698594.25
 2.1099999   2699100.5
 2.29999995   2699602.75
 2.49000001   2700106.75
 2.68000007   2700615.5
 2.86999989   2701131.25
 3.05999994   2701653.25
 3.25   2702179.
 3.44000006   2702706.25
 3.63000011   2703232.25
 3.81999993   2703755.5
 4.01000023   2704272.5
 4.19999981   2704787.25
 4.38999987   2705296.75
 4.57999992   2705808.75
 4.76999998   2706324.75
 4.96000004   2706847.25
 5.1500001   2707370.
 5.34000015   2707895.25
 5.53000021   2708415.25
 5.71999979   2708938.
 5.90999985   2709462.75
 6.0999999   2709984.75
 6.28999996   2710507.5
 6.48000002   2711025.75
 6.67000008   2711540.75
 6.86000013   2712056.75
 7.05000019   2712575.
 7.23999977   2713095.5
 7.42999983   2713621.
 7.61999989   2714149.
 7.80999994   2714680.75
 8.   2715212.5
 8.18999958   2715742.
 8.38000011   2716266.5
 8.56999969   2716783.25
 8.76000023   2717292.
 8.94999981   2717798.25
 9.14000034   2718307.
 9.32999992   2718819.75
 9.52000046   2719342.5
 9.71000004   2719873.25
 9.89999962   2720406.75
 10.0900002   2720943.25
 10.2799997   2721477.75
 10.4700003   2722009.25
 10.6599998   2722535.5
 10.8500004   2723057.5
 11.04   2723574.25
 11.2299995   2724091.25
 11.4200001   2724612.
 11.6099997   2725134.5
 11.8000002   2725665.25
 11.9899998   2726198.
 12.1800003   2726733.25
 12.3699999   2727263.5
 12.5600004   2727788.75
 12.75   2728305.75
 12.9399996   2728818.25
 13.1300001   2729325.75
 13.3199997   2729830.75
 13.5100002   2730339.25
 13.6999998   2730855.5
 13.8900003   2731378.
 14.0799999   2731909.5
 14.2700005   2732446.75
 14.46   2732980.
 14.6499996   2733503.75
 14.8400002   2734015.75
 15.0299997   2734514.5
 15.2200003   2735008.25
 15.4099998   2735501.
 15.6000004   2735997.5
 15.79   2736504.5
 15.9799995   2737024.25
 16.1700001   2737555.
 16.3600006   2738093.75
 16.5499992   2738632.25
 16.7399998   2739165.25
 16.9300003   2739687.25
 17.1200008   2740196.75
 17.3099995   2740694.75
 17.5   2741189.75
 17.6900005   2741686.75
 17.8799992   2742189.75
 18.0699997   2742701.25
 18.2600002   2743223.25
 18.4500008   2743749.5
 18.6399994   2744281.
 18.8299999   2744812.5
 19.0200005   2745340.
 19.2099991   2745860.
 19.3999996   2746372.5
 19.5900002   2746879.
 19.7800007   2747387.75
 19.9699993   2747899.25
 20.1599998   2748416.75
 20.3500004   2748940.5
 20.5400009   2749470.5
 20.7299995   2750003.
 20.9200001   2750531.75
 21.1100006   2751054.
 21.2999992   2751566.5
 21.4899998   2752068.75
 21.6800003   2752563.25
 21.8700008   2753055.
 22.0599995   2753545.75
 22.25   2754044.25
 22.4400005   2754549.25
 22.6299992   2755057.25
 22.8199997   2755569.25
 23.0100002   2756081.75
 23.2000008   2756592.5
 23.3899994   2757106.25
 23.5799999   2757620.75
 23.7700005   2758133.5
 23.9599991   2758645.
 24.1499996   2759155.
 24.3400002   2759666.5
 24.5300007   2760177.25
 24.7199993   2760688.75
 24.9099998   2761205.
 25.1000004   2761726.25
 25.2900009   2762250.25
 25.4799995   2762776.
 25.6700001   2763301.75
 25.8600006   2763823.75
 26.0499992   2764338.25
 26.2399998   2764842.
 26.4300003   2765340.5
 26.6200008   2765838.5
 26.8099995   2766342.5
