 -30.   -3592971.75
 -29.8099995   -3593627.5
 -29.6200008   -3594265.5
 -29.4300003   -3594945.75
 -29.2399998   -3595682.
 -29.0499992   -3596420.5
 -28.8600006   -3597105.75
 -28.6700001   -3597730.
 -28.4799995   -3598345.25
 -28.2900009   -3599018.
 -28.1000004   -3599755.5
 -27.9099998   -3600509.
 -27.7199993   -3601214.5
 -27.5300007   -3601857.25
 -27.3400002   -3602479.
 -27.1499996   -3603145.75
 -26.9599991   -3603877.5
 -26.7700005   -3604633.75
 -26.5799999   -3605352.
 -26.3899994   -3606002.5
 -26.2000008   -3606623.
 -26.0100002   -3607280.
 -25.8199997   -3608004.5
 -25.6299992   -3608764.75
 -25.4400005   -3609495.
 -25.25   -3610160.
 -25.0599995   -3610792.75
 -24.8700008   -3611456.
 -24.6800003   -3612185.5
 -24.4899998   -3612960.25
 -24.2999992   -3613713.
 -24.1100006   -3614399.5
 -23.9200001   -3615043.5
 -23.7299995   -3615705.75
 -23.5400009   -3616432.5
 -23.3500004   -3617209.25
 -23.1599998   -3617972.
 -22.9699993   -3618673.
 -22.7800007   -3619321.
 -22.5900002   -3619977.75
 -22.3999996   -3620694.5
 -22.2099991   -3621465.75
 -22.0200005   -3622235.75
 -21.8299999   -3622951.25
 -21.6399994   -3623612.25
 -21.4500008   -3624273.5
 -21.2600002   -3624994.25
 -21.0699997   -3625776.
 -20.8799992   -3626566.75
 -20.6900005   -3627301.25
 -20.5   -3627970.
 -20.3099995   -3628622.25
 -20.1200008   -3629325.25
 -19.9300003   -3630085.5
 -19.7399998   -3630861.25
 -19.5499992   -3631588.5
 -19.3600006   -3632254.5
 -19.1700001   -3632902.25
 -18.9799995   -3633600.
 -18.7900009   -3634365.5
 -18.6000004   -3635158.75
 -18.4099998   -3635915.25
 -18.2199993   -3636609.75
 -18.0300007   -3637278.75
 -17.8400002   -3637980.25
 -17.6499996   -3638742.5
 -17.4599991   -3639533.5
 -17.2700005   -3640290.25
 -17.0799999   -3640983.5
 -16.8899994   -3641639.
 -16.7000008   -3642319.5
 -16.5100002   -3643057.75
 -16.3199997   -3643833.5
 -16.1299992   -3644589.75
 -15.9399996   -3645290.
 -15.75   -3645955.25
 -15.5600004   -3646638.
 -15.3699999   -3647376.5
 -15.1800003   -3648158.
 -14.9899998   -3648924.5
 -14.8000002   -3649639.75
 -14.6099997   -3650306.25
 -14.4200001   -3650976.
 -14.2299995   -3651696.
 -14.04   -3652461.
 -13.8500004   -3653225.
 -13.6599998   -3653940.5
 -13.4700003   -3654607.25
 -13.2799997   -3655268.75
 -13.0900002   -3655969.75
 -12.8999996   -3656720.75
 -12.71   -3657477.
 -12.5200005   -3658193.5
 -12.3299999   -3658859.25
 -12.1400003   -3659513.5
 -11.9499998   -3660207.25
 -11.7600002   -3660951.25
 -11.5699997   -3661714.5
 -11.3800001   -3662445.
 -11.1899996   -3663123.25
 -11.   -3663782.25
 -10.8100004   -3664471.75
 -10.6199999   -3665211.75
 -10.4300003   -3665976.25
 -10.2399998   -3666714.5
 -10.0500002   -3667403.25
 -9.85999966   -3668065.5
 -9.67000008   -3668746.5
 -9.47999954   -3669482.75
 -9.28999996   -3670254.
 -9.10000038   -3671017.25
 -8.90999985   -3671735.5
 -8.72000027   -3672419.25
 -8.52999973   -3673116.25
 -8.34000015   -3673860.
 -8.14999962   -3674642.75
 -7.96000004   -3675416.75
 -7.76999998   -3676141.5
 -7.57999992   -3676815.5
 -7.38999987   -3677487.
 -7.19999981   -3678200.25
 -7.01000023   -3678959.25
 -6.82000017   -3679723.75
 -6.63000011   -3680450.75
 -6.44000006   -3681130.5
 -6.25   -3681807.75
 -6.05999994   -3682531.5
 -5.86999989   -3683310.
 -5.67999983   -3684101.75
 -5.48999977   -3684859.25
 -5.30000019   -3685563.25
 -5.11000013   -3686251.
 -4.92000008   -3686968.25
 -4.73000002   -3687735.5
 -4.53999996   -3688521.25
 -4.3499999   -3689274.25
 -4.15999985   -3689972.5
 -3.97000003   -3690639.
 -3.77999997   -3691327.75
 -3.58999991   -3692069.
 -3.4000001   -3692835.25
 -3.21000004   -3693579.25
 -3.01999998   -3694268.5
 -2.82999992   -3694928.5
 -2.6400001   -3695607.5
 -2.45000005   -3696347.25
 -2.25999999   -3697129.
 -2.06999993   -3697904.25
 -1.88   -3698631.
 -1.69000006   -3699320.25
 -1.5   -3700019.25
 -1.30999994   -3700773.
 -1.12   -3701567.25
 -0.930000007   -3702359.
 -0.74000001   -3703100.25
 -0.550000012   -3703793.5
 -0.360000014   -3704490.
 -0.170000002   -3705233.5
 1.999999955E-2   -3706026.5
 0.209999993   -3706822.5
 0.400000006   -3707577.25
 0.589999974   -3708285.5
 0.779999971   -3708988.75
 0.970000029   -3709735.
 1.15999997   -3710528.25
 1.35000002   -3711332.25
 1.53999996   -3712096.5
 1.73000002   -3712805.5
 1.91999996   -3713496.75
 2.1099999   -3714216.75
 2.29999995   -3714984.25
 2.49000001   -3715763.
 2.68000007   -3716502.75
 2.86999989   -3717190.
 3.05999994   -3717854.25
 3.25   -3718549.5
 3.44000006   -3719301.
 3.63000011   -3720081.
 3.81999993   -3720837.75
 4.01000023   -3721548.75
 4.19999981   -3722232.
 4.38999987   -3722940.75
 4.57999992   -3723700.75
 4.76999998   -3724491.
 4.96000004   -3725260.25
 5.1500001   -3725975.
 5.34000015   -3726656.
 5.53000021   -3727352.
 5.71999979   -3728099.75
 5.90999985   -3728885.
 6.0999999   -3729658.5
 6.28999996   -3730383.
 6.48000002   -3731067.25
 6.67000008   -3731763.5
 6.86000013   -3732506.5
 7.05000019   -3733295.
 7.23999977   -3734080.25
 7.42999983   -3734822.5
 7.61999989   -3735522.5
 7.80999994   -3736225.25
 8.   -3736971.25
 8.18999958   -3737763.
 8.38000011   -3738557.75
 8.56999969   -3739308.75
 8.76000023   -3740010.25
 8.94999981   -3740697.5
 9.14000034   -3741420.5
 9.32999992   -3742188.5
 9.52000046   -3742968.
 9.71000004   -3743708.5
 9.89999962   -3744399.
 10.0900002   -3745075.5
 10.2799997   -3745786.
 10.4700003   -3746550.5
 10.6599998   -3747341.25
 10.8500004   -3748109.
 11.04   -3748827.5
 11.2299995   -3749522.
 11.4200001   -3750236.
 11.6099997   -3750994.75
 11.8000002   -3751780.
 11.9899998   -3752546.
 12.1800003   -3753263.25
 12.3699999   -3753950.5
 12.5600004   -3754651.25
 12.75   -3755398.75
 12.9399996   -3756182.
 13.1300001   -3756955.
 13.3199997   -3757684.5
 13.5100002   -3758377.25
 13.6999998   -3759077.75
 13.8900003   -3759821.25
 14.0799999   -3760603.25
 14.2700005   -3761385.75
 14.46   -3762123.75
 14.6499996   -3762823.25
 14.8400002   -3763519.
 15.0299997   -3764253.25
 15.2200003   -3765027.25
 15.4099998   -3765808.75
 15.6000004   -3766558.
 15.79   -3767264.75
 15.9799995   -3767963.
 16.1700001   -3768695.25
 16.3600006   -3769475.5
 16.5499992   -3770272.5
 16.7399998   -3771043.5
 16.9300003   -3771768.5
 17.1200008   -3772477.
 17.3099995   -3773209.75
 17.5   -3773986.5
 17.6900005   -3774779.75
 17.8799992   -3775547.25
 18.0699997   -3776267.25
 18.2600002   -3776957.25
 18.4500008   -3777667.25
 18.6399994   -3778424.
 18.8299999   -3779209.5
 19.0200005   -3779983.25
 19.2099991   -3780715.75
 19.3999996   -3781418.75
 19.5900002   -3782137.5
 19.7800007   -3782906.25
 19.9699993   -3783712.75
 20.1599998   -3784515.5
 20.3500004   -3785278.75
 20.5400009   -3785997.75
 20.7299995   -3786718.
 20.9200001   -3787476.75
 21.1100006   -3788272.25
 21.2999992   -3789069.75
 21.4899998   -3789825.5
 21.6800003   -3790538.5
 21.8700008   -3791242.
 22.0599995   -3791982.75
 22.25   -3792764.25
 22.4400005   -3793553.
 22.6299992   -3794304.5
 22.8199997   -3795009.
 23.0100002   -3795703.
 23.2000008   -3796438.25
 23.3899994   -3797227.
 23.5799999   -3798037.75
 23.7700005   -3798817.25
 23.9599991   -3799550.5
 24.1499996   -3800261.
 24.3400002   -3800997.
 24.5300007   -3801786.25
 24.7199993   -3802595.5
 24.9099998   -3803380.75
 25.1000004   -3804119.
 25.2900009   -3804831.25
 25.4799995   -3805567.5
 25.6700001   -3806359.
 25.8600006   -3807182.75
 26.0499992   -3807984.75
 26.2399998   -3808737.
 26.4300003   -3809453.25
 26.6200008   -3810186.5
 26.8099995   -3810968.75
