 -30.   10088756.
 -29.8099995   10090829.
 -29.6200008   10092906.
 -29.4300003   10094975.
 -29.2399998   10097033.
 -29.0499992   10099092.
 -28.8600006   10101163.
 -28.6700001   10103244.
 -28.4799995   10105329.
 -28.2900009   10107401.
 -28.1000004   10109465.
 -27.9099998   10111523.
 -27.7199993   10113585.
 -27.5300007   10115656.
 -27.3400002   10117727.
 -27.1499996   10119790.
 -26.9599991   10121842.
 -26.7700005   10123896.
 -26.5799999   10125964.
 -26.3899994   10128053.
 -26.2000008   10130152.
 -26.0100002   10132245.
 -25.8199997   10134319.
 -25.6299992   10136381.
 -25.4400005   10138440.
 -25.25   10140509.
 -25.0599995   10142581.
 -24.8700008   10144652.
 -24.6800003   10146715.
 -24.4899998   10148779.
 -24.2999992   10150850.
 -24.1100006   10152934.
 -23.9200001   10155023.
 -23.7299995   10157105.
 -23.5400009   10159171.
 -23.3500004   10161224.
 -23.1599998   10163277.
 -22.9699993   10165340.
 -22.7800007   10167415.
 -22.5900002   10169492.
 -22.3999996   10171563.
 -22.2099991   10173626.
 -22.0200005   10175685.
 -21.8299999   10177755.
 -21.6399994   10179829.
 -21.4500008   10181904.
 -21.2600002   10183970.
 -21.0699997   10186027.
 -20.8799992   10188077.
 -20.6900005   10190136.
 -20.5   10192207.
 -20.3099995   10194283.
 -20.1200008   10196359.
 -19.9300003   10198427.
 -19.7399998   10200493.
 -19.5499992   10202563.
 -19.3600006   10204636.
 -19.1700001   10206713.
 -18.9799995   10208782.
 -18.7900009   10210844.
 -18.6000004   10212902.
 -18.4099998   10214967.
 -18.2199993   10217045.
 -18.0300007   10219131.
 -17.8400002   10221214.
 -17.6499996   10223288.
 -17.4599991   10225356.
 -17.2700005   10227425.
 -17.0799999   10229505.
 -16.8899994   10231591.
 -16.7000008   10233677.
 -16.5100002   10235758.
 -16.3199997   10237835.
 -16.1299992   10239915.
 -15.9399996   10242008.
 -15.75   10244106.
 -15.5600004   10246204.
 -15.3699999   10248291.
 -15.1800003   10250370.
 -14.9899998   10252445.
 -14.8000002   10254527.
 -14.6099997   10256615.
 -14.4200001   10258700.
 -14.2299995   10260777.
 -14.04   10262844.
 -13.8500004   10264906.
 -13.6599998   10266975.
 -13.4700003   10269052.
 -13.2799997   10271131.
 -13.0900002   10273201.
 -12.8999996   10275259.
 -12.71   10277315.
 -12.5200005   10279375.
 -12.3299999   10281448.
 -12.1400003   10283527.
 -11.9499998   10285601.
 -11.7600002   10287667.
 -11.5699997   10289724.
 -11.3800001   10291785.
 -11.1899996   10293857.
 -11.   10295937.
 -10.8100004   10298016.
 -10.6199999   10300086.
 -10.4300003   10302150.
 -10.2399998   10304214.
 -10.0500002   10306285.
 -9.85999966   10308359.
 -9.67000008   10310431.
 -9.47999954   10312495.
 -9.28999996   10314555.
 -9.10000038   10316621.
 -8.90999985   10318698.
 -8.72000027   10320785.
 -8.52999973   10322876.
 -8.34000015   10324963.
 -8.14999962   10327047.
 -7.96000004   10329136.
 -7.76999998   10331227.
 -7.57999992   10333324.
 -7.38999987   10335417.
 -7.19999981   10337501.
 -7.01000023   10339580.
 -6.82000017   10341662.
 -6.63000011   10343756.
 -6.44000006   10345860.
 -6.25   10347967.
 -6.05999994   10350069.
 -5.86999989   10352161.
 -5.67999983   10354247.
 -5.48999977   10356325.
 -5.30000019   10358399.
 -5.11000013   10360464.
 -4.92000008   10362520.
 -4.73000002   10364572.
 -4.53999996   10366630.
 -4.3499999   10368692.
 -4.15999985   10370760.
 -3.97000003   10372827.
 -3.77999997   10374893.
 -3.58999991   10376959.
 -3.4000001   10379032.
 -3.21000004   10381115.
 -3.01999998   10383204.
 -2.82999992   10385292.
 -2.6400001   10387378.
 -2.45000005   10389465.
 -2.25999999   10391562.
 -2.06999993   10393668.
 -1.88   10395779.
 -1.69000006   10397883.
 -1.5   10399977.
 -1.30999994   10402062.
 -1.12   10404150.
 -0.930000007   10406242.
 -0.74000001   10408334.
 -0.550000012   10410421.
 -0.360000014   10412503.
 -0.170000002   10414584.
 1.999999955E-2   10416673.
 0.209999993   10418770.
 0.400000006   10420867.
 0.589999974   10422956.
 0.779999971   10425033.
 0.970000029   10427105.
 1.15999997   10429179.
 1.35000002   10431264.
 1.53999996   10433354.
 1.73000002   10435445.
 1.91999996   10437533.
 2.1099999   10439622.
 2.29999995   10441720.
 2.49000001   10443827.
 2.68000007   10445934.
 2.86999989   10448028.
 3.05999994   10450107.
 3.25   10452177.
 3.44000006   10454253.
 3.63000011   10456335.
 3.81999993   10458422.
 4.01000023   10460502.
 4.19999981   10462572.
 4.38999987   10464637.
 4.57999992   10466709.
 4.76999998   10468791.
 4.96000004   10470870.
 5.1500001   10472938.
 5.34000015   10474992.
 5.53000021   10477045.
 5.71999979   10479111.
 5.90999985   10481193.
 6.0999999   10483286.
 6.28999996   10485376.
 6.48000002   10487453.
 6.67000008   10489526.
 6.86000013   10491606.
 7.05000019   10493696.
 7.23999977   10495788.
 7.42999983   10497869.
 7.61999989   10499940.
 7.80999994   10502009.
 8.   10504086.
 8.18999958   10506176.
 8.38000011   10508267.
 8.56999969   10510348.
 8.76000023   10512413.
 8.94999981   10514475.
 9.14000034   10516543.
 9.32999992   10518625.
 9.52000046   10520715.
 9.71000004   10522799.
 9.89999962   10524869.
 10.0900002   10526933.
 10.2799997   10529001.
 10.4700003   10531079.
 10.6599998   10533168.
 10.8500004   10535248.
 11.04   10537319.
 11.2299995   10539384.
 11.4200001   10541456.
 11.6099997   10543542.
 11.8000002   10545639.
 11.9899998   10547732.
 12.1800003   10549812.
 12.3699999   10551878.
 12.5600004   10553944.
 12.75   10556021.
 12.9399996   10558107.
 13.1300001   10560195.
 13.3199997   10562274.
 13.5100002   10564341.
 13.6999998   10566413.
 13.8900003   10568495.
 14.0799999   10570584.
 14.2700005   10572672.
 14.46   10574747.
 14.6499996   10576811.
 14.8400002   10578871.
 15.0299997   10580945.
 15.2200003   10583035.
 15.4099998   10585135.
 15.6000004   10587225.
 15.79   10589306.
 15.9799995   10591381.
 16.1700001   10593465.
 16.3600006   10595557.
 16.5499992   10597649.
 16.7399998   10599730.
 16.9300003   10601796.
 17.1200008   10603860.
 17.3099995   10605935.
 17.5   10608028.
 17.6900005   10610128.
 17.8799992   10612216.
 18.0699997   10614289.
 18.2600002   10616349.
 18.4500008   10618416.
 18.6399994   10620492.
 18.8299999   10622571.
 19.0200005   10624638.
 19.2099991   10626693.
 19.3999996   10628746.
 19.5900002   10630817.
 19.7800007   10632913.
 19.9699993   10635030.
 20.1599998   10637142.
 20.3500004   10639235.
 20.5400009   10641310.
 20.7299995   10643382.
 20.9200001   10645462.
 21.1100006   10647549.
 21.2999992   10649631.
 21.4899998   10651698.
 21.6800003   10653755.
 21.8700008   10655817.
 22.0599995   10657897.
 22.25   10659997.
 22.4400005   10662098.
 22.6299992   10664188.
 22.8199997   10666264.
 23.0100002   10668337.
 23.2000008   10670421.
 23.3899994   10672522.
 23.5799999   10674625.
 23.7700005   10676718.
 23.9599991   10678797.
 24.1499996   10680866.
 24.3400002   10682939.
 24.5300007   10685028.
 24.7199993   10687123.
 24.9099998   10689215.
 25.1000004   10691289.
 25.2900009   10693353.
 25.4799995   10695424.
 25.6700001   10697512.
 25.8600006   10699613.
 26.0499992   10701710.
 26.2399998   10703795.
 26.4300003   10705866.
 26.6200008   10707938.
 26.8099995   10710026.
