 -30.   -4436798.5
 -29.8099995   -4437689.
 -29.6200008   -4438565.5
 -29.4300003   -4439444.5
 -29.2399998   -4440332.
 -29.0499992   -4441232.5
 -28.8600006   -4442146.5
 -28.6700001   -4443067.
 -28.4799995   -4443986.5
 -28.2900009   -4444901.5
 -28.1000004   -4445809.
 -27.9099998   -4446713.
 -27.7199993   -4447621.5
 -27.5300007   -4448544.5
 -27.3400002   -4449480.
 -27.1499996   -4450429.5
 -26.9599991   -4451389.5
 -26.7700005   -4452346.
 -26.5799999   -4453291.
 -26.3899994   -4454214.
 -26.2000008   -4455117.5
 -26.0100002   -4456005.5
 -25.8199997   -4456889.
 -25.6299992   -4457780.5
 -25.4400005   -4458689.
 -25.25   -4459614.
 -25.0599995   -4460555.
 -24.8700008   -4461503.
 -24.6800003   -4462442.
 -24.4899998   -4463364.
 -24.2999992   -4464262.5
 -24.1100006   -4465139.
 -23.9200001   -4466003.5
 -23.7299995   -4466871.5
 -23.5400009   -4467757.5
 -23.3500004   -4468671.
 -23.1599998   -4469611.5
 -22.9699993   -4470571.
 -22.7800007   -4471536.5
 -22.5900002   -4472489.
 -22.3999996   -4473422.
 -22.2099991   -4474327.
 -22.0200005   -4475211.
 -21.8299999   -4476084.
 -21.6399994   -4476961.5
 -21.4500008   -4477856.
 -21.2600002   -4478773.5
 -21.0699997   -4479711.
 -20.8799992   -4480659.
 -20.6900005   -4481603.
 -20.5   -4482532.
 -20.3099995   -4483435.5
 -20.1200008   -4484314.
 -19.9300003   -4485172.
 -19.7399998   -4486018.5
 -19.5499992   -4486867.5
 -19.3600006   -4487731.5
 -19.1700001   -4488617.5
 -18.9799995   -4489526.
 -18.7900009   -4490447.
 -18.6000004   -4491369.5
 -18.4099998   -4492278.
 -18.2199993   -4493164.
 -18.0300007   -4494028.5
 -17.8400002   -4494873.5
 -17.6499996   -4495715.
 -17.4599991   -4496565.
 -17.2700005   -4497436.
 -17.0799999   -4498331.5
 -16.8899994   -4499254.5
 -16.7000008   -4500189.
 -16.5100002   -4501125.5
 -16.3199997   -4502051.
 -16.1299992   -4502956.5
 -15.9399996   -4503839.5
 -15.75   -4504709.5
 -15.5600004   -4505577.
 -15.3699999   -4506448.5
 -15.1800003   -4507335.5
 -14.9899998   -4508238.5
 -14.8000002   -4509158.
 -14.6099997   -4510089.
 -14.4200001   -4511021.
 -14.2299995   -4511950.
 -14.04   -4512866.
 -13.8500004   -4513765.
 -13.6599998   -4514651.
 -13.4700003   -4515527.5
 -13.2799997   -4516400.
 -13.0900002   -4517275.5
 -12.8999996   -4518160.5
 -12.71   -4519052.5
 -12.5200005   -4519951.5
 -12.3299999   -4520854.
 -12.1400003   -4521754.
 -11.9499998   -4522647.5
 -11.7600002   -4523532.5
 -11.5699997   -4524411.5
 -11.3800001   -4525287.5
 -11.1899996   -4526167.5
 -11.   -4527053.
 -10.8100004   -4527948.
 -10.6199999   -4528844.5
 -10.4300003   -4529743.5
 -10.2399998   -4530640.
 -10.0500002   -4531535.
 -9.85999966   -4532425.5
 -9.67000008   -4533316.
 -9.47999954   -4534204.5
 -9.28999996   -4535094.
 -9.10000038   -4535981.5
 -8.90999985   -4536867.
 -8.72000027   -4537749.5
 -8.52999973   -4538625.
 -8.34000015   -4539500.
 -8.14999962   -4540372.
 -7.96000004   -4541246.
 -7.76999998   -4542124.
 -7.57999992   -4543006.5
 -7.38999987   -4543891.
 -7.19999981   -4544775.
 -7.01000023   -4545653.
 -6.82000017   -4546524.
 -6.63000011   -4547391.
 -6.44000006   -4548255.
 -6.25   -4549119.
 -6.05999994   -4549994.5
 -5.86999989   -4550881.
 -5.67999983   -4551780.
 -5.48999977   -4552689.
 -5.30000019   -4553601.
 -5.11000013   -4554501.5
 -4.92000008   -4555390.5
 -4.73000002   -4556262.
 -4.53999996   -4557120.
 -4.3499999   -4557975.
 -4.15999985   -4558833.5
 -3.97000003   -4559711.
 -3.77999997   -4560609.
 -3.58999991   -4561525.
 -3.4000001   -4562450.
 -3.21000004   -4563374.5
 -3.01999998   -4564285.
 -2.82999992   -4565176.5
 -2.6400001   -4566052.
 -2.45000005   -4566915.5
 -2.25999999   -4567777.5
 -2.06999993   -4568645.5
 -1.88   -4569525.5
 -1.69000006   -4570415.
 -1.5   -4571311.
 -1.30999994   -4572206.5
 -1.12   -4573094.5
 -0.930000007   -4573974.5
 -0.74000001   -4574847.5
 -0.550000012   -4575720.5
 -0.360000014   -4576595.
 -0.170000002   -4577474.5
 1.999999955E-2   -4578357.5
 0.209999993   -4579242.5
 0.400000006   -4580129.
 0.589999974   -4581015.5
 0.779999971   -4581902.
 0.970000029   -4582794.
 1.15999997   -4583687.5
 1.35000002   -4584585.
 1.53999996   -4585483.
 1.73000002   -4586376.5
 1.91999996   -4587262.
 2.1099999   -4588136.5
 2.29999995   -4589005.5
 2.49000001   -4589873.5
 2.68000007   -4590746.5
 2.86999989   -4591628.5
 3.05999994   -4592523.
 3.25   -4593426.
 3.44000006   -4594336.
 3.63000011   -4595241.5
 3.81999993   -4596141.5
 4.01000023   -4597033.5
 4.19999981   -4597919.5
 4.38999987   -4598805.5
 4.57999992   -4599690.5
 4.76999998   -4600580.
 4.96000004   -4601468.5
 5.1500001   -4602360.
 5.34000015   -4603248.
 5.53000021   -4604132.
 5.71999979   -4605014.5
 5.90999985   -4605892.
 6.0999999   -4606769.
 6.28999996   -4607645.5
 6.48000002   -4608518.
 6.67000008   -4609389.5
 6.86000013   -4610256.
 7.05000019   -4611118.5
 7.23999977   -4611982.
 7.42999983   -4612848.
 7.61999989   -4613717.
 7.80999994   -4614589.5
 8.   -4615463.
 8.18999958   -4616336.5
 8.38000011   -4617204.
 8.56999969   -4618066.5
 8.76000023   -4618922.5
 8.94999981   -4619778.5
 9.14000034   -4620635.5
 9.32999992   -4621498.
 9.52000046   -4622370.
 9.71000004   -4623252.
 9.89999962   -4624144.5
 10.0900002   -4625042.5
 10.2799997   -4625937.5
 10.4700003   -4626826.
 10.6599998   -4627701.
 10.8500004   -4628561.5
 11.04   -4629408.
 11.2299995   -4630250.5
 11.4200001   -4631095.5
 11.6099997   -4631944.5
 11.8000002   -4632804.5
 11.9899998   -4633673.
 12.1800003   -4634544.5
 12.3699999   -4635411.5
 12.5600004   -4636267.5
 12.75   -4637105.
 12.9399996   -4637928.
 13.1300001   -4638738.5
 13.3199997   -4639547.5
 13.5100002   -4640366.5
 13.6999998   -4641199.5
 13.8900003   -4642051.5
 14.0799999   -4642918.
 14.2700005   -4643794.5
 14.46   -4644673.
 14.6499996   -4645545.
 14.8400002   -4646402.5
 15.0299997   -4647243.
 15.2200003   -4648072.
 15.4099998   -4648893.
 15.6000004   -4649720.
 15.79   -4650554.5
 15.9799995   -4651401.
 16.1700001   -4652257.5
 16.3600006   -4653119.5
 16.5499992   -4653979.5
 16.7399998   -4654833.
 16.9300003   -4655674.5
 17.1200008   -4656504.
 17.3099995   -4657324.
 17.5   -4658136.5
 17.6900005   -4658948.
 17.8799992   -4659766.
 18.0699997   -4660590.5
 18.2600002   -4661424.
 18.4500008   -4662264.
 18.6399994   -4663111.5
 18.8299999   -4663962.5
 19.0200005   -4664816.5
 19.2099991   -4665667.5
 19.3999996   -4666514.
 19.5900002   -4667354.
 19.7800007   -4668185.5
 19.9699993   -4669011.
 20.1599998   -4669834.5
 20.3500004   -4670663.
 20.5400009   -4671497.5
 20.7299995   -4672343.
 20.9200001   -4673198.
 21.1100006   -4674061.
 21.2999992   -4674925.5
 21.4899998   -4675782.5
 21.6800003   -4676629.
 21.8700008   -4677460.
 22.0599995   -4678279.
 22.25   -4679095.5
 22.4400005   -4679918.
 22.6299992   -4680755.
 22.8199997   -4681611.5
 23.0100002   -4682488.5
 23.2000008   -4683377.5
 23.3899994   -4684269.5
 23.5799999   -4685157.
 23.7700005   -4686028.5
 23.9599991   -4686880.5
 24.1499996   -4687709.
 24.3400002   -4688522.
 24.5300007   -4689329.5
 24.7199993   -4690143.
 24.9099998   -4690971.
 25.1000004   -4691814.
 25.2900009   -4692666.
 25.4799995   -4693522.
 25.6700001   -4694373.
 25.8600006   -4695214.5
 26.0499992   -4696038.
 26.2399998   -4696851.5
 26.4300003   -4697660.5
 26.6200008   -4698476.5
 26.8099995   -4699310.
