 -30.   -592021.813
 -29.8099995   -592068.938
 -29.6200008   -592057.75
 -29.4300003   -592009.75
 -29.2399998   -591958.875
 -29.0499992   -591929.063
 -28.8600006   -591940.
 -28.6700001   -591995.25
 -28.4799995   -592087.25
 -28.2900009   -592187.813
 -28.1000004   -592267.
 -27.9099998   -592291.75
 -27.7199993   -592245.438
 -27.5300007   -592126.125
 -27.3400002   -591952.313
 -27.1499996   -591764.25
 -26.9599991   -591604.563
 -26.7700005   -591510.875
 -26.5799999   -591506.063
 -26.3899994   -591587.5
 -26.2000008   -591728.75
 -26.0100002   -591884.563
 -25.8199997   -592006.938
 -25.6299992   -592054.5
 -25.4400005   -592010.
 -25.25   -591880.75
 -25.0599995   -591706.563
 -24.8700008   -591533.625
 -24.6800003   -591415.938
 -24.4899998   -591387.5
 -24.2999992   -591453.25
 -24.1100006   -591593.75
 -23.9200001   -591764.438
 -23.7299995   -591908.5
 -23.5400009   -591980.813
 -23.3500004   -591953.75
 -23.1599998   -591829.438
 -22.9699993   -591639.5
 -22.7800007   -591432.938
 -22.5900002   -591267.063
 -22.3999996   -591177.938
 -22.2099991   -591188.938
 -22.0200005   -591282.438
 -21.8299999   -591423.
 -21.6399994   -591561.188
 -21.4500008   -591652.75
 -21.2600002   -591668.125
 -21.0699997   -591598.875
 -20.8799992   -591470.188
 -20.6900005   -591321.25
 -20.5   -591198.563
 -20.3099995   -591147.5
 -20.1200008   -591187.438
 -19.9300003   -591319.75
 -19.7399998   -591518.438
 -19.5499992   -591740.563
 -19.3600006   -591938.188
 -19.1700001   -592076.25
 -18.9799995   -592135.688
 -18.7900009   -592123.063
 -18.6000004   -592063.875
 -18.4099998   -591998.188
 -18.2199993   -591968.188
 -18.0300007   -592003.5
 -17.8400002   -592119.188
 -17.6499996   -592302.375
 -17.4599991   -592525.188
 -17.2700005   -592745.
 -17.0799999   -592925.375
 -16.8899994   -593040.188
 -16.7000008   -593084.375
 -16.5100002   -593071.125
 -16.3199997   -593031.875
 -16.1299992   -593000.313
 -15.9399996   -593008.625
 -15.75   -593077.563
 -15.5600004   -593207.688
 -15.3699999   -593382.5
 -15.1800003   -593575.438
 -14.9899998   -593750.375
 -14.8000002   -593876.563
 -14.6099997   -593940.5
 -14.4200001   -593939.688
 -14.2299995   -593896.688
 -14.04   -593841.75
 -13.8500004   -593813.875
 -13.6599998   -593844.
 -13.4700003   -593953.625
 -13.2799997   -594147.5
 -13.0900002   -594406.875
 -12.8999996   -594693.25
 -12.71   -594971.875
 -12.5200005   -595202.563
 -12.3299999   -595366.313
 -12.1400003   -595460.125
 -11.9499998   -595503.438
 -11.7600002   -595527.188
 -11.5699997   -595564.375
 -11.3800001   -595646.875
 -11.1899996   -595782.438
 -11.   -595964.688
 -10.8100004   -596168.625
 -10.6199999   -596357.563
 -10.4300003   -596493.813
 -10.2399998   -596554.75
 -10.0500002   -596532.75
 -9.85999966   -596446.438
 -9.67000008   -596324.375
 -9.47999954   -596212.563
 -9.28999996   -596146.063
 -9.10000038   -596155.063
 -8.90999985   -596243.063
 -8.72000027   -596398.438
 -8.52999973   -596595.563
 -8.34000015   -596798.188
 -8.14999962   -596971.625
 -7.96000004   -597094.688
 -7.76999998   -597165.813
 -7.57999992   -597195.063
 -7.38999987   -597211.25
 -7.19999981   -597243.375
 -7.01000023   -597321.438
 -6.82000017   -597460.75
 -6.63000011   -597663.625
 -6.44000006   -597913.125
 -6.25   -598177.125
 -6.05999994   -598417.125
 -5.86999989   -598601.563
 -5.67999983   -598706.188
 -5.48999977   -598730.75
 -5.30000019   -598695.375
 -5.11000013   -598634.625
 -4.92000008   -598591.438
 -4.73000002   -598599.063
 -4.53999996   -598676.438
 -4.3499999   -598819.313
 -4.15999985   -599002.
 -3.97000003   -599183.438
 -3.77999997   -599325.5
 -3.58999991   -599395.875
 -3.4000001   -599386.563
 -3.21000004   -599309.688
 -3.01999998   -599202.625
 -2.82999992   -599111.5
 -2.6400001   -599081.688
 -2.45000005   -599138.5
 -2.25999999   -599293.438
 -2.06999993   -599524.875
 -1.88   -599799.25
 -1.69000006   -600068.813
 -1.5   -600287.5
 -1.30999994   -600423.
 -1.12   -600470.625
 -0.930000007   -600449.313
 -0.74000001   -600392.688
 -0.550000012   -600346.563
 -0.360000014   -600354.375
 -0.170000002   -600439.938
 1.999999955E-2   -600604.25
 0.209999993   -600826.
 0.400000006   -601064.875
 0.589999974   -601276.938
 0.779999971   -601426.625
 0.970000029   -601496.313
 1.15999997   -601488.25
 1.35000002   -601432.875
 1.53999996   -601372.125
 1.73000002   -601353.813
 1.91999996   -601411.438
 2.1099999   -601560.063
 2.29999995   -601783.875
 2.49000001   -602048.813
 2.68000007   -602300.
 2.86999989   -602494.438
 3.05999994   -602595.375
 3.25   -602597.688
 3.44000006   -602518.5
 3.63000011   -602400.813
 3.81999993   -602293.188
 4.01000023   -602242.25
 4.19999981   -602279.938
 4.38999987   -602410.5
 4.57999992   -602610.
 4.76999998   -602837.875
 4.96000004   -603051.188
 5.1500001   -603208.5
 5.34000015   -603290.625
 5.53000021   -603299.
 5.71999979   -603263.813
 5.90999985   -603226.313
 6.0999999   -603231.75
 6.28999996   -603317.75
 6.48000002   -603498.688
 6.67000008   -603762.375
 6.86000013   -604074.938
 7.05000019   -604382.813
 7.23999977   -604636.813
 7.42999983   -604797.438
 7.61999989   -604849.25
 7.80999994   -604805.625
 8.   -604698.25
 8.18999958   -604581.563
 8.38000011   -604500.813
 8.56999969   -604498.125
 8.76000023   -604583.563
 8.94999981   -604742.375
 9.14000034   -604942.375
 9.32999992   -605130.688
 9.52000046   -605259.438
 9.71000004   -605301.875
 9.89999962   -605252.25
 10.0900002   -605131.813
 10.2799997   -604993.438
 10.4700003   -604895.938
 10.6599998   -604884.
 10.8500004   -604989.125
 11.04   -605210.875
 11.2299995   -605511.563
 11.4200001   -605838.125
 11.6099997   -606132.563
 11.8000002   -606343.625
 11.9899998   -606444.5
 12.1800003   -606450.25
 12.3699999   -606393.063
 12.5600004   -606330.938
 12.75   -606318.563
 12.9399996   -606399.063
 13.1300001   -606588.438
 13.3199997   -606864.
 13.5100002   -607182.063
 13.6999998   -607479.75
 13.8900003   -607700.313
 14.0799999   -607806.563
 14.2700005   -607793.625
 14.46   -607690.313
 14.6499996   -607554.063
 14.8400002   -607447.875
 15.0299997   -607427.25
 15.2200003   -607520.813
 15.4099998   -607727.25
 15.6000004   -608011.063
 15.79   -608315.125
 15.9799995   -608580.875
 16.1700001   -608761.313
 16.3600006   -608841.125
 16.5499992   -608829.875
 16.7399998   -608769.563
 16.9300003   -608711.813
 17.1200008   -608710.625
 17.3099995   -608799.5
 17.5   -608989.25
 17.6900005   -609255.375
 17.8799992   -609555.188
 18.0699997   -609828.875
 18.2600002   -610026.75
 18.4500008   -610113.875
 18.6399994   -610090.438
 18.8299999   -609980.438
 19.0200005   -609834.813
 19.2099991   -609710.25
 19.3999996   -609657.313
 19.5900002   -609705.125
 19.7800007   -609856.125
 19.9699993   -610079.125
 20.1599998   -610327.75
 20.3500004   -610545.688
 20.5400009   -610684.25
 20.7299995   -610723.438
 20.9200001   -610668.438
 21.1100006   -610557.125
 21.2999992   -610443.813
 21.4899998   -610381.125
 21.6800003   -610414.563
 21.8700008   -610558.313
 22.0599995   -610796.25
 22.25   -611085.063
 22.4400005   -611361.563
 22.6299992   -611571.375
 22.8199997   -611674.188
 23.0100002   -611662.563
 23.2000008   -611563.563
 23.3899994   -611432.438
 23.5799999   -611333.188
 23.7700005   -611321.75
 23.9599991   -611425.5
 24.1499996   -611648.563
 24.3400002   -611952.75
 24.5300007   -612286.188
 24.7199993   -612587.875
 24.9099998   -612810.125
 25.1000004   -612923.5
 25.2900009   -612941.563
 25.4799995   -612894.
 25.6700001   -612835.375
 25.8600006   -612821.563
 26.0499992   -612888.813
 26.2399998   -613050.438
 26.4300003   -613292.688
 26.6200008   -613572.938
 26.8099995   -613838.625
