 -30.   8253457.5
 -29.8099995   8255130.
 -29.6200008   8256791.
 -29.4300003   8258446.5
 -29.2399998   8260098.5
 -29.0499992   8261758.
 -28.8600006   8263423.
 -28.6700001   8265096.5
 -28.4799995   8266775.
 -28.2900009   8268452.
 -28.1000004   8270124.5
 -27.9099998   8271785.5
 -27.7199993   8273436.5
 -27.5300007   8275075.5
 -27.3400002   8276710.
 -27.1499996   8278343.
 -26.9599991   8279982.5
 -26.7700005   8281630.5
 -26.5799999   8283290.
 -26.3899994   8284958.
 -26.2000008   8286632.
 -26.0100002   8288301.
 -25.8199997   8289966.
 -25.6299992   8291618.5
 -25.4400005   8293258.5
 -25.25   8294890.5
 -25.0599995   8296517.
 -24.8700008   8298145.5
 -24.6800003   8299782.
 -24.4899998   8301429.
 -24.2999992   8303085.
 -24.1100006   8304747.5
 -23.9200001   8306412.5
 -23.7299995   8308070.5
 -23.5400009   8309718.5
 -23.3500004   8311354.5
 -23.1599998   8312978.
 -22.9699993   8314593.5
 -22.7800007   8316208.5
 -22.5900002   8317830.
 -22.3999996   8319460.5
 -22.2099991   8321103.
 -22.0200005   8322757.5
 -21.8299999   8324415.5
 -21.6399994   8326070.
 -21.4500008   8327716.5
 -21.2600002   8329352.5
 -21.0699997   8330977.
 -20.8799992   8332595.5
 -20.6900005   8334212.
 -20.5   8335833.5
 -20.3099995   8337462.5
 -20.1200008   8339106.
 -19.9300003   8340760.
 -19.7399998   8342422.
 -19.5499992   8344083.
 -19.3600006   8345737.
 -19.1700001   8347381.5
 -18.9799995   8349013.5
 -18.7900009   8350636.5
 -18.6000004   8352255.5
 -18.4099998   8353878.5
 -18.2199993   8355509.
 -18.0300007   8357153.5
 -17.8400002   8358809.
 -17.6499996   8360474.5
 -17.4599991   8362142.
 -17.2700005   8363807.5
 -17.0799999   8365460.5
 -16.8899994   8367105.
 -16.7000008   8368737.
 -16.5100002   8370364.
 -16.3199997   8371987.5
 -16.1299992   8373615.5
 -15.9399996   8375250.5
 -15.75   8376894.5
 -15.5600004   8378549.
 -15.3699999   8380206.
 -15.1800003   8381862.5
 -14.9899998   8383511.5
 -14.8000002   8385151.
 -14.6099997   8386778.5
 -14.4200001   8388398.5
 -14.2299995   8390016.
 -14.04   8391636.
 -13.8500004   8393262.
 -13.6599998   8394901.
 -13.4700003   8396549.
 -13.2799997   8398207.
 -13.0900002   8399868.
 -12.8999996   8401527.
 -12.71   8403180.
 -12.5200005   8404825.
 -12.3299999   8406461.
 -12.1400003   8408090.
 -11.9499998   8409717.
 -11.7600002   8411345.
 -11.5699997   8412978.
 -11.3800001   8414616.
 -11.1899996   8416259.
 -11.   8417905.
 -10.8100004   8419550.
 -10.6199999   8421189.
 -10.4300003   8422819.
 -10.2399998   8424434.
 -10.0500002   8426038.
 -9.85999966   8427633.
 -9.67000008   8429223.
 -9.47999954   8430813.
 -9.28999996   8432408.
 -9.10000038   8434015.
 -8.90999985   8435633.
 -8.72000027   8437263.
 -8.52999973   8438897.
 -8.34000015   8440529.
 -8.14999962   8442159.
 -7.96000004   8443780.
 -7.76999998   8445392.
 -7.57999992   8447000.
 -7.38999987   8448609.
 -7.19999981   8450222.
 -7.01000023   8451847.
 -6.82000017   8453483.
 -6.63000011   8455129.
 -6.44000006   8456780.
 -6.25   8458427.
 -6.05999994   8460063.
 -5.86999989   8461686.
 -5.67999983   8463293.
 -5.48999977   8464888.
 -5.30000019   8466477.
 -5.11000013   8468068.
 -4.92000008   8469667.
 -4.73000002   8471279.
 -4.53999996   8472902.
 -4.3499999   8474531.
 -4.15999985   8476160.
 -3.97000003   8477779.
 -3.77999997   8479384.
 -3.58999991   8480975.
 -3.4000001   8482554.
 -3.21000004   8484128.
 -3.01999998   8485704.
 -2.82999992   8487292.
 -2.6400001   8488897.
 -2.45000005   8490519.
 -2.25999999   8492154.
 -2.06999993   8493794.
 -1.88   8495429.
 -1.69000006   8497050.
 -1.5   8498656.
 -1.30999994   8500245.
 -1.12   8501827.
 -0.930000007   8503406.
 -0.74000001   8504991.
 -0.550000012   8506592.
 -0.360000014   8508206.
 -0.170000002   8509833.
 1.999999955E-2   8511467.
 0.209999993   8513097.
 0.400000006   8514717.
 0.589999974   8516322.
 0.779999971   8517909.
 0.970000029   8519487.
 1.15999997   8521058.
 1.35000002   8522635.
 1.53999996   8524222.
 1.73000002   8525823.
 1.91999996   8527440.
 2.1099999   8529065.
 2.29999995   8530694.
 2.49000001   8532317.
 2.68000007   8533924.
 2.86999989   8535515.
 3.05999994   8537089.
 3.25   8538652.
 3.44000006   8540215.
 3.63000011   8541783.
 3.81999993   8543363.
 4.01000023   8544963.
 4.19999981   8546576.
 4.38999987   8548198.
 4.57999992   8549817.
 4.76999998   8551428.
 4.96000004   8553020.
 5.1500001   8554598.
 5.34000015   8556162.
 5.53000021   8557724.
 5.71999979   8559291.
 5.90999985   8560874.
 6.0999999   8562474.
 6.28999996   8564090.
 6.48000002   8565716.
 6.67000008   8567341.
 6.86000013   8568959.
 7.05000019   8570560.
 7.23999977   8572141.
 7.42999983   8573705.
 7.61999989   8575259.
 7.80999994   8576812.
 8.   8578372.
 8.18999958   8579942.
 8.38000011   8581523.
 8.56999969   8583115.
 8.76000023   8584704.
 8.94999981   8586289.
 9.14000034   8587861.
 9.32999992   8589417.
 9.52000046   8590957.
 9.71000004   8592491.
 9.89999962   8594023.
 10.0900002   8595563.
 10.2799997   8597121.
 10.4700003   8598694.
 10.6599998   8600287.
 10.8500004   8601887.
 11.04   8603490.
 11.2299995   8605084.
 11.4200001   8606662.
 11.6099997   8608222.
 11.8000002   8609766.
 11.9899998   8611304.
 12.1800003   8612842.
 12.3699999   8614389.
 12.5600004   8615952.
 12.75   8617532.
 12.9399996   8619123.
 13.1300001   8620720.
 13.3199997   8622308.
 13.5100002   8623881.
 13.6999998   8625432.
 13.8900003   8626966.
 14.0799999   8628488.
 14.2700005   8630007.
 14.46   8631536.
 14.6499996   8633083.
 14.8400002   8634649.
 15.0299997   8636230.
 15.2200003   8637820.
 15.4099998   8639408.
 15.6000004   8640984.
 15.79   8642539.
 15.9799995   8644077.
 16.1700001   8645599.
 16.3600006   8647119.
 16.5499992   8648646.
 16.7399998   8650188.
 16.9300003   8651748.
 17.1200008   8653322.
 17.3099995   8654908.
 17.5   8656491.
 17.6900005   8658065.
 17.8799992   8659623.
 18.0699997   8661160.
 18.2600002   8662680.
 18.4500008   8664196.
 18.6399994   8665715.
 18.8299999   8667246.
 19.0200005   8668796.
 19.2099991   8670364.
 19.3999996   8671945.
 19.5900002   8673529.
 19.7800007   8675107.
 19.9699993   8676672.
 20.1599998   8678223.
 20.3500004   8679761.
 20.5400009   8681291.
 20.7299995   8682824.
 20.9200001   8684367.
 21.1100006   8685924.
 21.2999992   8687495.
 21.4899998   8689078.
 21.6800003   8690662.
 21.8700008   8692242.
 22.0599995   8693811.
 22.25   8695365.
 22.4400005   8696908.
 22.6299992   8698439.
 22.8199997   8699967.
 23.0100002   8701500.
 23.2000008   8703041.
 23.3899994   8704597.
 23.5799999   8706167.
 23.7700005   8707748.
 23.9599991   8709332.
 24.1499996   8710913.
 24.3400002   8712485.
 24.5300007   8714046.
 24.7199993   8715595.
 24.9099998   8717138.
 25.1000004   8718680.
 25.2900009   8720229.
 25.4799995   8721790.
 25.6700001   8723365.
 25.8600006   8724950.
 26.0499992   8726539.
 26.2399998   8728123.
 26.4300003   8729694.
 26.6200008   8731249.
 26.8099995   8732784.
