 -30.   -535252.875
 -29.8099995   -535352.
 -29.6200008   -535442.625
 -29.4300003   -535529.063
 -29.2399998   -535615.875
 -29.0499992   -535707.688
 -28.8600006   -535805.688
 -28.6700001   -535908.313
 -28.4799995   -536014.875
 -28.2900009   -536120.875
 -28.1000004   -536222.063
 -27.9099998   -536318.625
 -27.7199993   -536406.563
 -27.5300007   -536488.063
 -27.3400002   -536568.188
 -27.1499996   -536648.938
 -26.9599991   -536735.25
 -26.7700005   -536829.75
 -26.5799999   -536931.5
 -26.3899994   -537038.75
 -26.2000008   -537149.063
 -26.0100002   -537257.688
 -25.8199997   -537363.063
 -25.6299992   -537460.
 -25.4400005   -537551.625
 -25.25   -537637.25
 -25.0599995   -537721.
 -24.8700008   -537807.25
 -24.6800003   -537899.688
 -24.4899998   -537998.688
 -24.2999992   -538105.438
 -24.1100006   -538216.375
 -23.9200001   -538327.438
 -23.7299995   -538433.688
 -23.5400009   -538532.938
 -23.3500004   -538624.875
 -23.1599998   -538710.563
 -22.9699993   -538793.438
 -22.7800007   -538878.875
 -22.5900002   -538969.313
 -22.3999996   -539067.
 -22.2099991   -539173.688
 -22.0200005   -539286.813
 -21.8299999   -539401.25
 -21.6399994   -539514.563
 -21.4500008   -539620.938
 -21.2600002   -539720.063
 -21.0699997   -539810.938
 -20.8799992   -539899.063
 -20.6900005   -539985.125
 -20.5   -540075.688
 -20.3099995   -540173.938
 -20.1200008   -540280.813
 -19.9300003   -540395.438
 -19.7399998   -540515.
 -19.5499992   -540634.
 -19.3600006   -540749.25
 -19.1700001   -540856.
 -18.9799995   -540953.313
 -18.7900009   -541043.625
 -18.6000004   -541131.375
 -18.4099998   -541221.813
 -18.2199993   -541318.25
 -18.0300007   -541422.875
 -17.8400002   -541537.
 -17.6499996   -541656.875
 -17.4599991   -541780.375
 -17.2700005   -541900.438
 -17.0799999   -542013.875
 -16.8899994   -542119.813
 -16.7000008   -542216.375
 -16.5100002   -542309.688
 -16.3199997   -542400.125
 -16.1299992   -542495.
 -15.9399996   -542594.188
 -15.75   -542699.875
 -15.5600004   -542809.75
 -15.3699999   -542924.938
 -15.1800003   -543036.375
 -14.9899998   -543143.625
 -14.8000002   -543244.25
 -14.6099997   -543340.063
 -14.4200001   -543429.938
 -14.2299995   -543519.375
 -14.04   -543614.063
 -13.8500004   -543715.5
 -13.6599998   -543824.938
 -13.4700003   -543943.688
 -13.2799997   -544068.063
 -13.0900002   -544194.813
 -12.8999996   -544318.
 -12.71   -544435.25
 -12.5200005   -544544.
 -12.3299999   -544647.
 -12.1400003   -544743.375
 -11.9499998   -544842.375
 -11.7600002   -544942.25
 -11.5699997   -545049.25
 -11.3800001   -545161.75
 -11.1899996   -545276.063
 -11.   -545390.438
 -10.8100004   -545499.375
 -10.6199999   -545601.125
 -10.4300003   -545696.313
 -10.2399998   -545783.625
 -10.0500002   -545869.688
 -9.85999966   -545957.25
 -9.67000008   -546049.875
 -9.47999954   -546151.313
 -9.28999996   -546258.25
 -9.10000038   -546370.
 -8.90999985   -546485.438
 -8.72000027   -546598.313
 -8.52999973   -546706.938
 -8.34000015   -546809.063
 -8.14999962   -546907.188
 -7.96000004   -547003.125
 -7.76999998   -547100.938
 -7.57999992   -547203.438
 -7.38999987   -547313.375
 -7.19999981   -547430.563
 -7.01000023   -547556.063
 -6.82000017   -547682.938
 -6.63000011   -547811.125
 -6.44000006   -547935.5
 -6.25   -548054.938
 -6.05999994   -548165.375
 -5.86999989   -548270.875
 -5.67999983   -548367.813
 -5.48999977   -548463.563
 -5.30000019   -548560.125
 -5.11000013   -548660.688
 -4.92000008   -548766.375
 -4.73000002   -548877.063
 -4.53999996   -548990.063
 -4.3499999   -549103.125
 -4.15999985   -549213.063
 -3.97000003   -549320.188
 -3.77999997   -549421.375
 -3.58999991   -549518.625
 -3.4000001   -549614.375
 -3.21000004   -549710.063
 -3.01999998   -549809.25
 -2.82999992   -549914.688
 -2.6400001   -550027.375
 -2.45000005   -550143.188
 -2.25999999   -550260.875
 -2.06999993   -550378.
 -1.88   -550492.125
 -1.69000006   -550603.
 -1.5   -550708.438
 -1.30999994   -550811.688
 -1.12   -550914.313
 -0.930000007   -551020.438
 -0.74000001   -551129.188
 -0.550000012   -551241.375
 -0.360000014   -551356.875
 -0.170000002   -551472.813
 1.999999955E-2   -551587.75
 0.209999993   -551697.563
 0.400000006   -551804.375
 0.589999974   -551907.75
 0.779999971   -552008.25
 0.970000029   -552109.
 1.15999997   -552211.563
 1.35000002   -552317.875
 1.53999996   -552427.
 1.73000002   -552538.188
 1.91999996   -552647.188
 2.1099999   -552757.813
 2.29999995   -552866.313
 2.49000001   -552975.125
 2.68000007   -553086.375
 2.86999989   -553195.75
 3.05999994   -553307.813
 3.25   -553418.125
 3.44000006   -553527.938
 3.63000011   -553634.438
 3.81999993   -553737.813
 4.01000023   -553840.25
 4.19999981   -553940.75
 4.38999987   -554041.125
 4.57999992   -554142.938
 4.76999998   -554248.25
 4.96000004   -554356.313
 5.1500001   -554466.688
 5.34000015   -554577.188
 5.53000021   -554688.938
 5.71999979   -554798.063
 5.90999985   -554908.75
 6.0999999   -555020.563
 6.28999996   -555135.438
 6.48000002   -555253.438
 6.67000008   -555373.875
 6.86000013   -555495.5
 7.05000019   -555614.625
 7.23999977   -555732.313
 7.42999983   -555844.188
 7.61999989   -555951.625
 7.80999994   -556053.938
 8.   -556154.313
 8.18999958   -556258.313
 8.38000011   -556364.438
 8.56999969   -556476.813
 8.76000023   -556591.563
 8.94999981   -556705.313
 9.14000034   -556816.938
 9.32999992   -556923.375
 9.52000046   -557025.
 9.71000004   -557122.688
 9.89999962   -557219.063
 10.0900002   -557318.125
 10.2799997   -557424.125
 10.4700003   -557538.25
 10.6599998   -557658.313
 10.8500004   -557782.688
 11.04   -557905.063
 11.2299995   -558024.5
 11.4200001   -558136.938
 11.6099997   -558246.125
 11.8000002   -558350.063
 11.9899998   -558454.313
 12.1800003   -558563.563
 12.3699999   -558677.188
 12.5600004   -558798.188
 12.75   -558924.
 12.9399996   -559053.063
 13.1300001   -559180.75
 13.3199997   -559301.125
 13.5100002   -559412.438
 13.6999998   -559516.875
 13.8900003   -559617.188
 14.0799999   -559714.688
 14.2700005   -559811.688
 14.46   -559912.063
 14.6499996   -560018.125
 14.8400002   -560130.188
 15.0299997   -560247.063
 15.2200003   -560364.5
 15.4099998   -560477.875
 15.6000004   -560588.375
 15.79   -560691.563
 15.9799995   -560788.188
 16.1700001   -560881.188
 16.3600006   -560974.625
 16.5499992   -561071.875
 16.7399998   -561173.938
 16.9300003   -561282.063
 17.1200008   -561397.438
 17.3099995   -561519.
 17.5   -561638.125
 17.6900005   -561754.875
 17.8799992   -561864.813
 18.0699997   -561969.188
 18.2600002   -562069.125
 18.4500008   -562166.938
 18.6399994   -562265.625
 18.8299999   -562365.875
 19.0200005   -562470.
 19.2099991   -562581.375
 19.3999996   -562694.875
 19.5900002   -562813.125
 19.7800007   -562932.063
 19.9699993   -563050.188
 20.1599998   -563164.063
 20.3500004   -563270.75
 20.5400009   -563375.5
 20.7299995   -563477.188
 20.9200001   -563579.625
 21.1100006   -563685.563
 21.2999992   -563795.375
 21.4899998   -563908.563
 21.6800003   -564026.438
 21.8700008   -564145.188
 22.0599995   -564261.875
 22.25   -564374.75
 22.4400005   -564482.813
 22.6299992   -564589.5
 22.8199997   -564695.438
 23.0100002   -564803.813
 23.2000008   -564916.875
 23.3899994   -565034.188
 23.5799999   -565156.688
 23.7700005   -565282.625
 23.9599991   -565409.688
 24.1499996   -565537.813
 24.3400002   -565664.313
 24.5300007   -565787.5
 24.7199993   -565908.563
 24.9099998   -566026.25
 25.1000004   -566141.75
 25.2900009   -566255.938
 25.4799995   -566371.563
 25.6700001   -566490.875
 25.8600006   -566613.75
 26.0499992   -566740.313
 26.2399998   -566868.125
 26.4300003   -566996.438
 26.6200008   -567123.25
 26.8099995   -567246.313
