 -30.   7308395.
 -29.8099995   7309904.
 -29.6200008   7311418.5
 -29.4300003   7312923.5
 -29.2399998   7314419.
 -29.0499992   7315916.
 -28.8600006   7317423.5
 -28.6700001   7318942.
 -28.4799995   7320463.
 -28.2900009   7321976.
 -28.1000004   7323475.
 -27.9099998   7324973.5
 -27.7199993   7326479.
 -27.5300007   7327995.
 -27.3400002   7329517.5
 -27.1499996   7331033.5
 -26.9599991   7332537.5
 -26.7700005   7334036.5
 -26.5799999   7335546.5
 -26.3899994   7337067.
 -26.2000008   7338595.
 -26.0100002   7340114.5
 -25.8199997   7341623.
 -25.6299992   7343126.
 -25.4400005   7344632.
 -25.25   7346149.
 -25.0599995   7347671.5
 -24.8700008   7349191.5
 -24.6800003   7350699.5
 -24.4899998   7352199.5
 -24.2999992   7353702.
 -24.1100006   7355215.5
 -23.9200001   7356739.
 -23.7299995   7358260.5
 -23.5400009   7359771.5
 -23.3500004   7361271.5
 -23.1599998   7362771.
 -22.9699993   7364278.5
 -22.7800007   7365798.
 -22.5900002   7367315.5
 -22.3999996   7368825.5
 -22.2099991   7370324.5
 -22.0200005   7371821.
 -21.8299999   7373327.5
 -21.6399994   7374846.
 -21.4500008   7376369.5
 -21.2600002   7377884.5
 -21.0699997   7379384.5
 -20.8799992   7380875.5
 -20.6900005   7382370.
 -20.5   7383877.
 -20.3099995   7385389.
 -20.1200008   7386893.
 -19.9300003   7388383.5
 -19.7399998   7389872.
 -19.5499992   7391367.5
 -19.3600006   7392881.5
 -19.1700001   7394405.5
 -18.9799995   7395926.
 -18.7900009   7397434.5
 -18.6000004   7398933.
 -18.4099998   7400437.5
 -18.2199993   7401956.5
 -18.0300007   7403483.
 -17.8400002   7405001.
 -17.6499996   7406505.5
 -17.4599991   7407997.
 -17.2700005   7409492.5
 -17.0799999   7411000.
 -16.8899994   7412517.5
 -16.7000008   7414033.5
 -16.5100002   7415536.5
 -16.3199997   7417030.5
 -16.1299992   7418529.
 -15.9399996   7420045.
 -15.75   7421576.
 -15.5600004   7423109.5
 -15.3699999   7424633.5
 -15.1800003   7426143.5
 -14.9899998   7427653.5
 -14.8000002   7429173.
 -14.6099997   7430706.
 -14.4200001   7432238.5
 -14.2299995   7433756.5
 -14.04   7435259.5
 -13.8500004   7436756.5
 -13.6599998   7438265.5
 -13.4700003   7439793.
 -13.2799997   7441323.5
 -13.0900002   7442843.
 -12.8999996   7444347.5
 -12.71   7445846.
 -12.5200005   7447354.5
 -12.3299999   7448878.5
 -12.1400003   7450408.5
 -11.9499998   7451926.5
 -11.7600002   7453429.5
 -11.5699997   7454928.5
 -11.3800001   7456439.5
 -11.1899996   7457966.5
 -11.   7459501.
 -10.8100004   7461024.5
 -10.6199999   7462528.
 -10.4300003   7464021.
 -10.2399998   7465518.
 -10.0500002   7467029.
 -9.85999966   7468547.
 -9.67000008   7470058.5
 -9.47999954   7471557.
 -9.28999996   7473047.5
 -9.10000038   7474547.
 -8.90999985   7476062.
 -8.72000027   7477590.
 -8.52999973   7479116.
 -8.34000015   7480626.
 -8.14999962   7482124.
 -7.96000004   7483622.5
 -7.76999998   7485134.
 -7.57999992   7486655.5
 -7.38999987   7488172.
 -7.19999981   7489673.5
 -7.01000023   7491157.
 -6.82000017   7492638.
 -6.63000011   7494128.
 -6.44000006   7495633.
 -6.25   7497143.
 -6.05999994   7498643.5
 -5.86999989   7500135.5
 -5.67999983   7501628.
 -5.48999977   7503135.5
 -5.30000019   7504662.
 -5.11000013   7506193.
 -4.92000008   7507712.5
 -4.73000002   7509211.
 -4.53999996   7510700.
 -4.3499999   7512196.
 -4.15999985   7513706.5
 -3.97000003   7515225.5
 -3.77999997   7516737.5
 -3.58999991   7518234.
 -3.4000001   7519724.
 -3.21000004   7521224.5
 -3.01999998   7522745.
 -2.82999992   7524278.5
 -2.6400001   7525804.5
 -2.45000005   7527308.
 -2.25999999   7528801.5
 -2.06999993   7530303.
 -1.88   7531827.
 -1.69000006   7533365.
 -1.5   7534897.5
 -1.30999994   7536407.5
 -1.12   7537902.
 -0.930000007   7539398.5
 -0.74000001   7540913.5
 -0.550000012   7542442.5
 -0.360000014   7543965.
 -0.170000002   7545471.
 1.999999955E-2   7546962.
 0.209999993   7548459.5
 0.400000006   7549978.
 0.589999974   7551513.5
 0.779999971   7553051.
 0.970000029   7554566.5
 1.15999997   7556066.
 1.35000002   7557565.
 1.53999996   7559082.
 1.73000002   7560617.5
 1.91999996   7562154.5
 2.1099999   7563676.
 2.29999995   7565181.
 2.49000001   7566686.
 2.68000007   7568205.5
 2.86999989   7569743.5
 3.05999994   7571281.5
 3.25   7572804.
 3.44000006   7574306.5
 3.63000011   7575804.
 3.81999993   7577315.5
 4.01000023   7578847.5
 4.19999981   7580390.
 4.38999987   7581918.5
 4.57999992   7583429.5
 4.76999998   7584936.
 4.96000004   7586458.
 5.1500001   7588000.5
 5.34000015   7589548.5
 5.53000021   7591083.5
 5.71999979   7592592.5
 5.90999985   7594097.
 6.0999999   7595613.5
 6.28999996   7597151.
 6.48000002   7598695.5
 6.67000008   7600227.
 6.86000013   7601736.
 7.05000019   7603234.5
 7.23999977   7604745.5
 7.42999983   7606280.5
 7.61999989   7607827.5
 7.80999994   7609364.
 8.   7610881.
 8.18999958   7612384.5
 8.38000011   7613900.
 8.56999969   7615437.5
 8.76000023   7616989.5
 8.94999981   7618532.
 9.14000034   7620046.
 9.32999992   7621541.5
 9.52000046   7623043.
 9.71000004   7624565.
 9.89999962   7626106.
 10.0900002   7627643.5
 10.2799997   7629161.5
 10.4700003   7630662.5
 10.6599998   7632170.
 10.8500004   7633699.5
 11.04   7635249.
 11.2299995   7636795.
 11.4200001   7638316.5
 11.6099997   7639814.
 11.8000002   7641312.5
 11.9899998   7642831.5
 12.1800003   7644372.5
 12.3699999   7645912.5
 12.5600004   7647434.5
 12.75   7648934.
 12.9399996   7650431.5
 13.1300001   7651950.5
 13.3199997   7653492.5
 13.5100002   7655035.5
 13.6999998   7656559.
 13.8900003   7658057.
 14.0799999   7659552.
 14.2700005   7661067.5
 14.46   7662607.5
 14.6499996   7664157.
 14.8400002   7665689.5
 15.0299997   7667200.
 15.2200003   7668706.5
 15.4099998   7670230.5
 15.6000004   7671780.
 15.79   7673336.
 15.9799995   7674875.5
 16.1700001   7676392.
 16.3600006   7677898.5
 16.5499992   7679418.
 16.7399998   7680962.
 16.9300003   7682514.5
 17.1200008   7684053.
 17.3099995   7685567.
 17.5   7687071.5
 17.6900005   7688584.
 17.8799992   7690125.
 18.0699997   7691676.
 18.2600002   7693216.5
 18.4500008   7694733.
 18.6399994   7696240.5
 18.8299999   7697762.
 19.0200005   7699308.
 19.2099991   7700871.
 19.3999996   7702422.5
 19.5900002   7703948.
 19.7800007   7705460.5
 19.9699993   7706984.
 20.1599998   7708529.
 20.3500004   7710087.5
 20.5400009   7711639.
 20.7299995   7713171.5
 20.9200001   7714691.5
 21.1100006   7716221.
 21.2999992   7717771.
 21.4899998   7719338.5
 21.6800003   7720901.
 21.8700008   7722446.5
 22.0599995   7723976.
 22.25   7725510.
 22.4400005   7727062.
 22.6299992   7728627.
 22.8199997   7730191.
 23.0100002   7731736.5
 23.2000008   7733268.5
 23.3899994   7734802.
 23.5799999   7736354.
 23.7700005   7737921.
 23.9599991   7739488.
 24.1499996   7741035.5
 24.3400002   7742563.5
 24.5300007   7744086.5
 24.7199993   7745620.5
 24.9099998   7747167.5
 25.1000004   7748714.5
 25.2900009   7750245.
 25.4799995   7751758.5
 25.6700001   7753272.5
 25.8600006   7754801.
 26.0499992   7756347.5
 26.2399998   7757897.
 26.4300003   7759430.5
 26.6200008   7760945.5
 26.8099995   7762454.
