 -30.   -140641.297
 -29.8099995   -140727.484
 -29.6200008   -140854.859
 -29.4300003   -140997.031
 -29.2399998   -141126.5
 -29.0499992   -141220.547
 -28.8600006   -141277.797
 -28.6700001   -141302.563
 -28.4799995   -141315.969
 -28.2900009   -141333.516
 -28.1000004   -141373.297
 -27.9099998   -141439.5
 -27.7199993   -141531.906
 -27.5300007   -141638.453
 -27.3400002   -141746.516
 -27.1499996   -141842.719
 -26.9599991   -141922.984
 -26.7700005   -141987.844
 -26.5799999   -142042.563
 -26.3899994   -142095.156
 -26.2000008   -142146.719
 -26.0100002   -142204.813
 -25.8199997   -142270.688
 -25.6299992   -142345.563
 -25.4400005   -142428.406
 -25.25   -142519.906
 -25.0599995   -142617.484
 -24.8700008   -142717.859
 -24.6800003   -142812.453
 -24.4899998   -142896.859
 -24.2999992   -142963.047
 -24.1100006   -143006.516
 -23.9200001   -143029.344
 -23.7299995   -143043.719
 -23.5400009   -143056.406
 -23.3500004   -143086.891
 -23.1599998   -143141.516
 -22.9699993   -143221.234
 -22.7800007   -143320.813
 -22.5900002   -143424.875
 -22.3999996   -143513.109
 -22.2099991   -143571.297
 -22.0200005   -143591.516
 -21.8299999   -143576.172
 -21.6399994   -143538.688
 -21.4500008   -143501.016
 -21.2600002   -143485.688
 -21.0699997   -143507.219
 -20.8799992   -143572.328
 -20.6900005   -143669.031
 -20.5   -143776.172
 -20.3099995   -143868.25
 -20.1200008   -143926.734
 -19.9300003   -143944.25
 -19.7399998   -143921.922
 -19.5499992   -143880.547
 -19.3600006   -143842.641
 -19.1700001   -143829.031
 -18.9799995   -143852.688
 -18.7900009   -143913.313
 -18.6000004   -143996.953
 -18.4099998   -144083.625
 -18.2199993   -144152.906
 -18.0300007   -144187.391
 -17.8400002   -144184.313
 -17.6499996   -144148.391
 -17.4599991   -144094.219
 -17.2700005   -144040.375
 -17.0799999   -144002.797
 -16.8899994   -143993.453
 -16.7000008   -144015.406
 -16.5100002   -144064.563
 -16.3199997   -144129.719
 -16.1299992   -144194.016
 -15.9399996   -144242.625
 -15.75   -144264.828
 -15.5600004   -144256.406
 -15.3699999   -144221.984
 -15.1800003   -144169.281
 -14.9899998   -144116.641
 -14.8000002   -144076.344
 -14.6099997   -144058.375
 -14.4200001   -144070.766
 -14.2299995   -144104.266
 -14.04   -144150.594
 -13.8500004   -144191.406
 -13.6599998   -144213.125
 -13.4700003   -144202.656
 -13.2799997   -144160.703
 -13.0900002   -144094.453
 -12.8999996   -144021.109
 -12.71   -143956.188
 -12.5200005   -143920.938
 -12.3299999   -143920.656
 -12.1400003   -143953.656
 -11.9499998   -144010.641
 -11.7600002   -144073.
 -11.5699997   -144122.297
 -11.3800001   -144139.75
 -11.1899996   -144121.922
 -11.   -144073.828
 -10.8100004   -144010.359
 -10.6199999   -143951.984
 -10.4300003   -143920.25
 -10.2399998   -143923.625
 -10.0500002   -143966.281
 -9.85999966   -144032.594
 -9.67000008   -144106.438
 -9.47999954   -144166.938
 -9.28999996   -144196.516
 -9.10000038   -144188.328
 -8.90999985   -144145.156
 -8.72000027   -144078.094
 -8.52999973   -144006.484
 -8.34000015   -143948.203
 -8.14999962   -143916.172
 -7.96000004   -143916.453
 -7.76999998   -143942.484
 -7.57999992   -143983.359
 -7.38999987   -144023.938
 -7.19999981   -144047.875
 -7.01000023   -144048.25
 -6.82000017   -144020.313
 -6.63000011   -143971.969
 -6.44000006   -143916.484
 -6.25   -143869.203
 -6.05999994   -143841.563
 -5.86999989   -143843.359
 -5.67999983   -143875.313
 -5.48999977   -143931.469
 -5.30000019   -143998.
 -5.11000013   -144061.531
 -4.92000008   -144106.922
 -4.73000002   -144124.438
 -4.53999996   -144114.672
 -4.3499999   -144079.984
 -4.15999985   -144030.469
 -3.97000003   -143984.719
 -3.77999997   -143955.453
 -3.58999991   -143953.594
 -3.4000001   -143981.766
 -3.21000004   -144030.844
 -3.01999998   -144088.078
 -2.82999992   -144130.172
 -2.6400001   -144144.203
 -2.45000005   -144120.25
 -2.25999999   -144060.406
 -2.06999993   -143976.922
 -1.88   -143891.266
 -1.69000006   -143826.172
 -1.5   -143798.922
 -1.30999994   -143819.125
 -1.12   -143877.047
 -0.930000007   -143957.688
 -0.74000001   -144036.391
 -0.550000012   -144090.375
 -0.360000014   -144105.844
 -0.170000002   -144085.359
 1.999999955E-2   -144035.891
 0.209999993   -143972.922
 0.400000006   -143921.109
 0.589999974   -143890.828
 0.779999971   -143894.906
 0.970000029   -143924.516
 1.15999997   -143971.25
 1.35000002   -144013.75
 1.53999996   -144038.156
 1.73000002   -144034.891
 1.91999996   -144004.297
 2.1099999   -143954.328
 2.29999995   -143898.406
 2.49000001   -143853.375
 2.68000007   -143830.828
 2.86999989   -143839.344
 3.05999994   -143875.766
 3.25   -143932.156
 3.44000006   -143995.203
 3.63000011   -144049.109
 3.81999993   -144084.109
 4.01000023   -144092.734
 4.19999981   -144077.75
 4.38999987   -144046.828
 4.57999992   -144007.984
 4.76999998   -143974.953
 4.96000004   -143950.422
 5.1500001   -143943.016
 5.34000015   -143955.359
 5.53000021   -143979.578
 5.71999979   -144011.109
 5.90999985   -144038.844
 6.0999999   -144053.25
 6.28999996   -144051.328
 6.48000002   -144031.828
 6.67000008   -144000.422
 6.86000013   -143963.578
 7.05000019   -143936.453
 7.23999977   -143932.406
 7.42999983   -143955.375
 7.61999989   -144005.406
 7.80999994   -144074.
 8.   -144145.516
 8.18999958   -144204.813
 8.38000011   -144238.922
 8.56999969   -144245.734
 8.76000023   -144225.547
 8.94999981   -144190.5
 9.14000034   -144147.313
 9.32999992   -144107.25
 9.52000046   -144079.094
 9.71000004   -144064.141
 9.89999962   -144059.219
 10.0900002   -144059.5
 10.2799997   -144059.609
 10.4700003   -144055.859
 10.6599998   -144047.625
 10.8500004   -144035.5
 11.04   -144023.828
 11.2299995   -144013.344
 11.4200001   -144004.734
 11.6099997   -144001.625
 11.8000002   -144013.25
 11.9899998   -144036.484
 12.1800003   -144072.125
 12.3699999   -144111.281
 12.5600004   -144146.
 12.75   -144168.875
 12.9399996   -144169.844
 13.1300001   -144146.563
 13.3199997   -144101.047
 13.5100002   -144041.938
 13.6999998   -143980.328
 13.8900003   -143928.172
 14.0799999   -143897.797
 14.2700005   -143892.25
 14.46   -143906.984
 14.6499996   -143933.969
 14.8400002   -143963.109
 15.0299997   -143981.781
 15.2200003   -143988.719
 15.4099998   -143986.563
 15.6000004   -143975.016
 15.79   -143966.109
 15.9799995   -143960.688
 16.1700001   -143966.063
 16.3600006   -143984.766
 16.5499992   -144020.813
 16.7399998   -144063.016
 16.9300003   -144108.734
 17.1200008   -144149.469
 17.3099995   -144176.75
 17.5   -144185.016
 17.6900005   -144170.609
 17.8799992   -144137.188
 18.0699997   -144094.578
 18.2600002   -144056.703
 18.4500008   -144039.703
 18.6399994   -144055.938
 18.8299999   -144107.844
 19.0200005   -144184.938
 19.2099991   -144268.406
 19.3999996   -144335.875
 19.5900002   -144368.078
 19.7800007   -144359.359
 19.9699993   -144314.641
 20.1599998   -144254.438
 20.3500004   -144202.234
 20.5400009   -144180.859
 20.7299995   -144196.844
 20.9200001   -144249.172
 21.1100006   -144320.891
 21.2999992   -144385.688
 21.4899998   -144420.859
 21.6800003   -144414.703
 21.8700008   -144364.703
 22.0599995   -144284.75
 22.25   -144197.453
 22.4400005   -144124.719
 22.6299992   -144081.922
 22.8199997   -144079.609
 23.0100002   -144111.469
 23.2000008   -144163.422
 23.3899994   -144219.719
 23.5799999   -144262.516
 23.7700005   -144283.641
 23.9599991   -144277.266
 24.1499996   -144252.109
 24.3400002   -144212.156
 24.5300007   -144175.078
 24.7199993   -144148.516
 24.9099998   -144141.906
 25.1000004   -144155.609
 25.2900009   -144185.922
 25.4799995   -144225.188
 25.6700001   -144262.297
 25.8600006   -144290.25
 26.0499992   -144304.5
 26.2399998   -144304.719
 26.4300003   -144291.516
 26.6200008   -144270.719
 26.8099995   -144248.672
