 -30.   10341586.
 -29.8099995   10343696.
 -29.6200008   10345806.
 -29.4300003   10347916.
 -29.2399998   10350027.
 -29.0499992   10352144.
 -28.8600006   10354264.
 -28.6700001   10356386.
 -28.4799995   10358503.
 -28.2900009   10360616.
 -28.1000004   10362725.
 -27.9099998   10364833.
 -27.7199993   10366944.
 -27.5300007   10369057.
 -27.3400002   10371171.
 -27.1499996   10373286.
 -26.9599991   10375401.
 -26.7700005   10377520.
 -26.5799999   10379641.
 -26.3899994   10381760.
 -26.2000008   10383873.
 -26.0100002   10385979.
 -25.8199997   10388084.
 -25.6299992   10390197.
 -25.4400005   10392320.
 -25.25   10394448.
 -25.0599995   10396572.
 -24.8700008   10398693.
 -24.6800003   10400810.
 -24.4899998   10402933.
 -24.2999992   10405063.
 -24.1100006   10407192.
 -23.9200001   10409315.
 -23.7299995   10411432.
 -23.5400009   10413545.
 -23.3500004   10415664.
 -23.1599998   10417789.
 -22.9699993   10419912.
 -22.7800007   10422024.
 -22.5900002   10424123.
 -22.3999996   10426217.
 -22.2099991   10428318.
 -22.0200005   10430423.
 -21.8299999   10432531.
 -21.6399994   10434624.
 -21.4500008   10436710.
 -21.2600002   10438794.
 -21.0699997   10440891.
 -20.8799992   10443007.
 -20.6900005   10445127.
 -20.5   10447238.
 -20.3099995   10449335.
 -20.1200008   10451431.
 -19.9300003   10453535.
 -19.7399998   10455651.
 -19.5499992   10457767.
 -19.3600006   10459875.
 -19.1700001   10461972.
 -18.9799995   10464070.
 -18.7900009   10466186.
 -18.6000004   10468318.
 -18.4099998   10470454.
 -18.2199993   10472575.
 -18.0300007   10474675.
 -17.8400002   10476770.
 -17.6499996   10478875.
 -17.4599991   10480991.
 -17.2700005   10483107.
 -17.0799999   10485218.
 -16.8899994   10487316.
 -16.7000008   10489410.
 -16.5100002   10491517.
 -16.3199997   10493641.
 -16.1299992   10495769.
 -15.9399996   10497893.
 -15.75   10500007.
 -15.5600004   10502118.
 -15.3699999   10504235.
 -15.1800003   10506364.
 -14.9899998   10508501.
 -14.8000002   10510632.
 -14.6099997   10512754.
 -14.4200001   10514873.
 -14.2299995   10516995.
 -14.04   10519128.
 -13.8500004   10521265.
 -13.6599998   10523395.
 -13.4700003   10525509.
 -13.2799997   10527615.
 -13.0900002   10529721.
 -12.8999996   10531833.
 -12.71   10533951.
 -12.5200005   10536071.
 -12.3299999   10538193.
 -12.1400003   10540311.
 -11.9499998   10542435.
 -11.7600002   10544562.
 -11.5699997   10546692.
 -11.3800001   10548821.
 -11.1899996   10550945.
 -11.   10553067.
 -10.8100004   10555191.
 -10.6199999   10557323.
 -10.4300003   10559463.
 -10.2399998   10561607.
 -10.0500002   10563749.
 -9.85999966   10565884.
 -9.67000008   10568009.
 -9.47999954   10570133.
 -9.28999996   10572257.
 -9.10000038   10574386.
 -8.90999985   10576514.
 -8.72000027   10578643.
 -8.52999973   10580776.
 -8.34000015   10582913.
 -8.14999962   10585059.
 -7.96000004   10587213.
 -7.76999998   10589371.
 -7.57999992   10591525.
 -7.38999987   10593674.
 -7.19999981   10595820.
 -7.01000023   10597968.
 -6.82000017   10600124.
 -6.63000011   10602281.
 -6.44000006   10604434.
 -6.25   10606586.
 -6.05999994   10608736.
 -5.86999989   10610891.
 -5.67999983   10613055.
 -5.48999977   10615224.
 -5.30000019   10617397.
 -5.11000013   10619566.
 -4.92000008   10621728.
 -4.73000002   10623885.
 -4.53999996   10626037.
 -4.3499999   10628178.
 -4.15999985   10630314.
 -3.97000003   10632446.
 -3.77999997   10634579.
 -3.58999991   10636713.
 -3.4000001   10638849.
 -3.21000004   10640991.
 -3.01999998   10643133.
 -2.82999992   10645273.
 -2.6400001   10647408.
 -2.45000005   10649539.
 -2.25999999   10651665.
 -2.06999993   10653790.
 -1.88   10655915.
 -1.69000006   10658043.
 -1.5   10660171.
 -1.30999994   10662298.
 -1.12   10664425.
 -0.930000007   10666551.
 -0.74000001   10668678.
 -0.550000012   10670806.
 -0.360000014   10672936.
 -0.170000002   10675069.
 1.999999955E-2   10677201.
 0.209999993   10679340.
 0.400000006   10681483.
 0.589999974   10683630.
 0.779999971   10685777.
 0.970000029   10687921.
 1.15999997   10690063.
 1.35000002   10692203.
 1.53999996   10694345.
 1.73000002   10696491.
 1.91999996   10698632.
 2.1099999   10700772.
 2.29999995   10702908.
 2.49000001   10705042.
 2.68000007   10707181.
 2.86999989   10709319.
 3.05999994   10711452.
 3.25   10713577.
 3.44000006   10715688.
 3.63000011   10717799.
 3.81999993   10719915.
 4.01000023   10722038.
 4.19999981   10724166.
 4.38999987   10726294.
 4.57999992   10728421.
 4.76999998   10730548.
 4.96000004   10732678.
 5.1500001   10734816.
 5.34000015   10736958.
 5.53000021   10739098.
 5.71999979   10741234.
 5.90999985   10743374.
 6.0999999   10745521.
 6.28999996   10747677.
 6.48000002   10749838.
 6.67000008   10751993.
 6.86000013   10754137.
 7.05000019   10756270.
 7.23999977   10758406.
 7.42999983   10760551.
 7.61999989   10762704.
 7.80999994   10764851.
 8.   10766987.
 8.18999958   10769112.
 8.38000011   10771234.
 8.56999969   10773360.
 8.76000023   10775486.
 8.94999981   10777606.
 9.14000034   10779715.
 9.32999992   10781824.
 9.52000046   10783940.
 9.71000004   10786076.
 9.89999962   10788227.
 10.0900002   10790381.
 10.2799997   10792522.
 10.4700003   10794653.
 10.6599998   10796784.
 10.8500004   10798926.
 11.04   10801074.
 11.2299995   10803221.
 11.4200001   10805352.
 11.6099997   10807468.
 11.8000002   10809587.
 11.9899998   10811718.
 12.1800003   10813861.
 12.3699999   10816003.
 12.5600004   10818132.
 12.75   10820252.
 12.9399996   10822379.
 13.1300001   10824525.
 13.3199997   10826686.
 13.5100002   10828847.
 13.6999998   10830995.
 13.8900003   10833127.
 14.0799999   10835258.
 14.2700005   10837400.
 14.46   10839550.
 14.6499996   10841698.
 14.8400002   10843836.
 15.0299997   10845962.
 15.2200003   10848092.
 15.4099998   10850230.
 15.6000004   10852372.
 15.79   10854497.
 15.9799995   10856602.
 16.1700001   10858692.
 16.3600006   10860785.
 16.5499992   10862896.
 16.7399998   10865021.
 16.9300003   10867144.
 17.1200008   10869254.
 17.3099995   10871356.
 17.5   10873468.
 17.6900005   10875596.
 17.8799992   10877733.
 18.0699997   10879863.
 18.2600002   10881979.
 18.4500008   10884090.
 18.6399994   10886212.
 18.8299999   10888347.
 19.0200005   10890487.
 19.2099991   10892619.
 19.3999996   10894732.
 19.5900002   10896841.
 19.7800007   10898956.
 19.9699993   10901085.
 20.1599998   10903221.
 20.3500004   10905355.
 20.5400009   10907481.
 20.7299995   10909606.
 20.9200001   10911739.
 21.1100006   10913886.
 21.2999992   10916029.
 21.4899998   10918166.
 21.6800003   10920290.
 21.8700008   10922409.
 22.0599995   10924531.
 22.25   10926662.
 22.4400005   10928792.
 22.6299992   10930922.
 22.8199997   10933048.
 23.0100002   10935175.
 23.2000008   10937308.
 23.3899994   10939448.
 23.5799999   10941582.
 23.7700005   10943712.
 23.9599991   10945836.
 24.1499996   10947959.
 24.3400002   10950082.
 24.5300007   10952207.
 24.7199993   10954332.
 24.9099998   10956448.
 25.1000004   10958559.
 25.2900009   10960665.
 25.4799995   10962770.
 25.6700001   10964876.
 25.8600006   10966985.
 26.0499992   10969098.
 26.2399998   10971212.
 26.4300003   10973328.
 26.6200008   10975446.
 26.8099995   10977566.
