 -30.   -3853636.
 -29.8099995   -3854426.25
 -29.6200008   -3855221.
 -29.4300003   -3856024.25
 -29.2399998   -3856833.75
 -29.0499992   -3857647.5
 -28.8600006   -3858461.
 -28.6700001   -3859268.75
 -28.4799995   -3860062.75
 -28.2900009   -3860850.75
 -28.1000004   -3861637.5
 -27.9099998   -3862431.25
 -27.7199993   -3863240.75
 -27.5300007   -3864064.75
 -27.3400002   -3864897.5
 -27.1499996   -3865727.75
 -26.9599991   -3866546.75
 -26.7700005   -3867350.75
 -26.5799999   -3868141.25
 -26.3899994   -3868924.75
 -26.2000008   -3869709.
 -26.0100002   -3870502.25
 -25.8199997   -3871302.25
 -25.6299992   -3872105.75
 -25.4400005   -3872908.
 -25.25   -3873707.5
 -25.0599995   -3874503.5
 -24.8700008   -3875303.75
 -24.6800003   -3876107.25
 -24.4899998   -3876913.
 -24.2999992   -3877722.5
 -24.1100006   -3878525.75
 -23.9200001   -3879320.5
 -23.7299995   -3880107.75
 -23.5400009   -3880889.25
 -23.3500004   -3881676.75
 -23.1599998   -3882478.
 -22.9699993   -3883297.5
 -22.7800007   -3884128.5
 -22.5900002   -3884962.
 -22.3999996   -3885783.75
 -22.2099991   -3886585.5
 -22.0200005   -3887369.25
 -21.8299999   -3888139.75
 -21.6399994   -3888914.75
 -21.4500008   -3889703.5
 -21.2600002   -3890512.75
 -21.0699997   -3891336.25
 -20.8799992   -3892166.75
 -20.6900005   -3892992.75
 -20.5   -3893806.25
 -20.3099995   -3894605.25
 -20.1200008   -3895391.5
 -19.9300003   -3896176.5
 -19.7399998   -3896966.
 -19.5499992   -3897765.75
 -19.3600006   -3898574.25
 -19.1700001   -3899386.5
 -18.9799995   -3900200.25
 -18.7900009   -3901011.75
 -18.6000004   -3901819.75
 -18.4099998   -3902624.25
 -18.2199993   -3903426.5
 -18.0300007   -3904227.
 -17.8400002   -3905020.75
 -17.6499996   -3905808.75
 -17.4599991   -3906588.
 -17.2700005   -3907361.5
 -17.0799999   -3908141.75
 -16.8899994   -3908931.25
 -16.7000008   -3909733.75
 -16.5100002   -3910547.75
 -16.3199997   -3911367.
 -16.1299992   -3912181.
 -15.9399996   -3912987.25
 -15.75   -3913785.25
 -15.5600004   -3914576.5
 -15.3699999   -3915370.25
 -15.1800003   -3916173.25
 -14.9899998   -3916987.5
 -14.8000002   -3917812.75
 -14.6099997   -3918646.25
 -14.4200001   -3919480.5
 -14.2299995   -3920310.25
 -14.04   -3921132.
 -13.8500004   -3921946.25
 -13.6599998   -3922759.25
 -13.4700003   -3923573.25
 -13.2799997   -3924389.5
 -13.0900002   -3925207.75
 -12.8999996   -3926020.
 -12.71   -3926826.5
 -12.5200005   -3927626.
 -12.3299999   -3928423.
 -12.1400003   -3929224.75
 -11.9499998   -3930032.
 -11.7600002   -3930853.
 -11.5699997   -3931681.25
 -11.3800001   -3932514.25
 -11.1899996   -3933344.5
 -11.   -3934163.5
 -10.8100004   -3934966.25
 -10.6199999   -3935751.
 -10.4300003   -3936524.75
 -10.2399998   -3937295.
 -10.0500002   -3938074.25
 -9.85999966   -3938869.25
 -9.67000008   -3939679.
 -9.47999954   -3940495.
 -9.28999996   -3941308.5
 -9.10000038   -3942110.
 -8.90999985   -3942895.25
 -8.72000027   -3943664.75
 -8.52999973   -3944422.25
 -8.34000015   -3945171.75
 -8.14999962   -3945921.5
 -7.96000004   -3946674.5
 -7.76999998   -3947438.5
 -7.57999992   -3948213.25
 -7.38999987   -3948995.75
 -7.19999981   -3949783.75
 -7.01000023   -3950573.75
 -6.82000017   -3951361.75
 -6.63000011   -3952145.
 -6.44000006   -3952921.25
 -6.25   -3953685.
 -6.05999994   -3954436.5
 -5.86999989   -3955181.
 -5.67999983   -3955927.
 -5.48999977   -3956686.5
 -5.30000019   -3957472.5
 -5.11000013   -3958285.75
 -4.92000008   -3959115.25
 -4.73000002   -3959947.25
 -4.53999996   -3960767.75
 -4.3499999   -3961564.5
 -4.15999985   -3962332.
 -3.97000003   -3963081.25
 -3.77999997   -3963826.
 -3.58999991   -3964579.25
 -3.4000001   -3965352.75
 -3.21000004   -3966154.5
 -3.01999998   -3966981.5
 -2.82999992   -3967822.
 -2.6400001   -3968661.5
 -2.45000005   -3969487.
 -2.25999999   -3970292.25
 -2.06999993   -3971073.75
 -1.88   -3971839.5
 -1.69000006   -3972595.25
 -1.5   -3973350.25
 -1.30999994   -3974114.25
 -1.12   -3974892.75
 -0.930000007   -3975692.
 -0.74000001   -3976512.
 -0.550000012   -3977347.75
 -0.360000014   -3978184.25
 -0.170000002   -3979005.75
 1.999999955E-2   -3979800.75
 0.209999993   -3980569.
 0.400000006   -3981316.75
 0.589999974   -3982057.25
 0.779999971   -3982803.75
 0.970000029   -3983571.
 1.15999997   -3984360.75
 1.35000002   -3985172.
 1.53999996   -3985994.
 1.73000002   -3986815.
 1.91999996   -3987624.
 2.1099999   -3988411.75
 2.29999995   -3989178.5
 2.49000001   -3989930.75
 2.68000007   -3990676.
 2.86999989   -3991426.25
 3.05999994   -3992188.5
 3.25   -3992963.
 3.44000006   -3993755.5
 3.63000011   -3994559.5
 3.81999993   -3995373.75
 4.01000023   -3996193.25
 4.19999981   -3997004.25
 4.38999987   -3997798.75
 4.57999992   -3998565.
 4.76999998   -3999304.25
 4.96000004   -4000024.25
 5.1500001   -4000744.
 5.34000015   -4001479.5
 5.53000021   -4002240.25
 5.71999979   -4003031.5
 5.90999985   -4003844.25
 6.0999999   -4004663.75
 6.28999996   -4005473.75
 6.48000002   -4006261.25
 6.67000008   -4007016.5
 6.86000013   -4007742.5
 7.05000019   -4008455.25
 7.23999977   -4009171.5
 7.42999983   -4009907.
 7.61999989   -4010671.5
 7.80999994   -4011461.75
 8.   -4012265.
 8.18999958   -4013066.5
 8.38000011   -4013853.
 8.56999969   -4014619.75
 8.76000023   -4015368.25
 8.94999981   -4016100.
 9.14000034   -4016829.
 9.32999992   -4017558.5
 9.52000046   -4018301.
 9.71000004   -4019061.25
 9.89999962   -4019837.
 10.0900002   -4020627.25
 10.2799997   -4021423.25
 10.4700003   -4022221.
 10.6599998   -4023014.
 10.8500004   -4023797.
 11.04   -4024569.
 11.2299995   -4025328.
 11.4200001   -4026077.75
 11.6099997   -4026825.25
 11.8000002   -4027578.75
 11.9899998   -4028350.75
 12.1800003   -4029140.75
 12.3699999   -4029944.25
 12.5600004   -4030753.5
 12.75   -4031555.
 12.9399996   -4032336.5
 13.1300001   -4033097.5
 13.3199997   -4033842.5
 13.5100002   -4034581.25
 13.6999998   -4035322.5
 13.8900003   -4036074.
 14.0799999   -4036839.5
 14.2700005   -4037614.25
 14.46   -4038394.25
 14.6499996   -4039171.5
 14.8400002   -4039940.5
 15.0299997   -4040696.5
 15.2200003   -4041440.75
 15.4099998   -4042173.75
 15.6000004   -4042901.75
 15.79   -4043625.75
 15.9799995   -4044352.75
 16.1700001   -4045083.
 16.3600006   -4045824.5
 16.5499992   -4046578.75
 16.7399998   -4047346.5
 16.9300003   -4048121.25
 17.1200008   -4048900.
 17.3099995   -4049673.5
 17.5   -4050436.25
 17.6900005   -4051188.75
 17.8799992   -4051936.5
 18.0699997   -4052683.
 18.2600002   -4053436.
 18.4500008   -4054194.5
 18.6399994   -4054962.
 18.8299999   -4055733.5
 19.0200005   -4056508.5
 19.2099991   -4057289.
 19.3999996   -4058072.75
 19.5900002   -4058855.75
 19.7800007   -4059635.25
 19.9699993   -4060403.25
 20.1599998   -4061159.25
 20.3500004   -4061905.
 20.5400009   -4062649.75
 20.7299995   -4063401.
 20.9200001   -4064166.5
 21.1100006   -4064946.
 21.2999992   -4065740.75
 21.4899998   -4066536.5
 21.6800003   -4067321.
 21.8700008   -4068087.75
 22.0599995   -4068829.
 22.25   -4069553.
 22.4400005   -4070270.75
 22.6299992   -4070992.25
 22.8199997   -4071726.
 23.0100002   -4072468.25
 23.2000008   -4073216.5
 23.3899994   -4073962.5
 23.5799999   -4074704.75
 23.7700005   -4075442.75
 23.9599991   -4076178.5
 24.1499996   -4076914.25
 24.3400002   -4077647.25
 24.5300007   -4078374.
 24.7199993   -4079092.25
 24.9099998   -4079805.25
 25.1000004   -4080522.25
 25.2900009   -4081248.75
 25.4799995   -4081992.25
 25.6700001   -4082751.25
 25.8600006   -4083518.75
 26.0499992   -4084284.25
 26.2399998   -4085036.25
 26.4300003   -4085768.75
 26.6200008   -4086481.25
 26.8099995   -4087184.75
