 -30.   1618849.63
 -29.8099995   1619183.38
 -29.6200008   1619520.25
 -29.4300003   1619859.13
 -29.2399998   1620197.75
 -29.0499992   1620534.
 -28.8600006   1620869.5
 -28.6700001   1621201.5
 -28.4799995   1621533.38
 -28.2900009   1621865.75
 -28.1000004   1622198.38
 -27.9099998   1622533.88
 -27.7199993   1622872.63
 -27.5300007   1623213.
 -27.3400002   1623553.13
 -27.1499996   1623895.25
 -26.9599991   1624234.5
 -26.7700005   1624573.13
 -26.5799999   1624906.88
 -26.3899994   1625238.38
 -26.2000008   1625569.
 -26.0100002   1625897.63
 -25.8199997   1626230.63
 -25.6299992   1626562.5
 -25.4400005   1626897.63
 -25.25   1627235.63
 -25.0599995   1627575.25
 -24.8700008   1627915.
 -24.6800003   1628251.
 -24.4899998   1628583.38
 -24.2999992   1628913.38
 -24.1100006   1629240.63
 -23.9200001   1629565.88
 -23.7299995   1629890.75
 -23.5400009   1630218.13
 -23.3500004   1630547.38
 -23.1599998   1630880.38
 -22.9699993   1631213.38
 -22.7800007   1631549.13
 -22.5900002   1631879.63
 -22.3999996   1632208.88
 -22.2099991   1632532.25
 -22.0200005   1632852.
 -21.8299999   1633169.88
 -21.6399994   1633488.25
 -21.4500008   1633807.
 -21.2600002   1634127.38
 -21.0699997   1634450.38
 -20.8799992   1634776.75
 -20.6900005   1635102.13
 -20.5   1635428.38
 -20.3099995   1635751.5
 -20.1200008   1636072.
 -19.9300003   1636388.5
 -19.7399998   1636700.5
 -19.5499992   1637010.88
 -19.3600006   1637321.5
 -19.1700001   1637635.
 -18.9799995   1637954.38
 -18.7900009   1638276.25
 -18.6000004   1638602.
 -18.4099998   1638929.38
 -18.2199993   1639256.13
 -18.0300007   1639578.88
 -17.8400002   1639895.63
 -17.6499996   1640210.63
 -17.4599991   1640521.88
 -17.2700005   1640833.
 -17.0799999   1641148.25
 -16.8899994   1641468.88
 -16.7000008   1641794.88
 -16.5100002   1642124.13
 -16.3199997   1642453.
 -16.1299992   1642779.63
 -15.9399996   1643102.
 -15.75   1643418.13
 -15.5600004   1643729.63
 -15.3699999   1644038.25
 -15.1800003   1644349.
 -14.9899998   1644663.13
 -14.8000002   1644981.88
 -14.6099997   1645307.5
 -14.4200001   1645636.88
 -14.2299995   1645966.
 -14.04   1646294.63
 -13.8500004   1646616.25
 -13.6599998   1646931.5
 -13.4700003   1647239.25
 -13.2799997   1647545.38
 -13.0900002   1647851.
 -12.8999996   1648161.25
 -12.71   1648477.
 -12.5200005   1648800.5
 -12.3299999   1649129.75
 -12.1400003   1649457.75
 -11.9499998   1649785.38
 -11.7600002   1650107.88
 -11.5699997   1650423.25
 -11.3800001   1650732.25
 -11.1899996   1651038.
 -11.   1651341.25
 -10.8100004   1651647.63
 -10.6199999   1651958.88
 -10.4300003   1652277.25
 -10.2399998   1652600.25
 -10.0500002   1652927.75
 -9.85999966   1653253.25
 -9.67000008   1653573.88
 -9.47999954   1653888.38
 -9.28999996   1654197.63
 -9.10000038   1654501.
 -8.90999985   1654804.63
 -8.72000027   1655110.
 -8.52999973   1655421.38
 -8.34000015   1655739.38
 -8.14999962   1656064.
 -7.96000004   1656392.5
 -7.76999998   1656720.
 -7.57999992   1657043.
 -7.38999987   1657359.13
 -7.19999981   1657671.13
 -7.01000023   1657977.38
 -6.82000017   1658283.63
 -6.63000011   1658591.75
 -6.44000006   1658903.63
 -6.25   1659220.63
 -6.05999994   1659542.25
 -5.86999989   1659864.88
 -5.67999983   1660186.88
 -5.48999977   1660507.38
 -5.30000019   1660823.13
 -5.11000013   1661132.5
 -4.92000008   1661437.75
 -4.73000002   1661742.75
 -4.53999996   1662047.63
 -4.3499999   1662357.13
 -4.15999985   1662670.38
 -3.97000003   1662992.
 -3.77999997   1663316.
 -3.58999991   1663641.63
 -3.4000001   1663965.88
 -3.21000004   1664285.63
 -3.01999998   1664596.88
 -2.82999992   1664904.63
 -2.6400001   1665206.13
 -2.45000005   1665509.
 -2.25999999   1665813.88
 -2.06999993   1666124.88
 -1.88   1666441.
 -1.69000006   1666760.63
 -1.5   1667081.13
 -1.30999994   1667400.13
 -1.12   1667714.75
 -0.930000007   1668024.
 -0.74000001   1668327.63
 -0.550000012   1668630.5
 -0.360000014   1668934.63
 -0.170000002   1669242.38
 1.999999955E-2   1669555.13
 0.209999993   1669871.25
 0.400000006   1670190.25
 0.589999974   1670508.13
 0.779999971   1670822.5
 0.970000029   1671131.25
 1.15999997   1671434.25
 1.35000002   1671735.25
 1.53999996   1672035.38
 1.73000002   1672338.63
 1.91999996   1672644.88
 2.1099999   1672954.63
 2.29999995   1673266.75
 2.49000001   1673580.
 2.68000007   1673890.63
 2.86999989   1674200.25
 3.05999994   1674506.75
 3.25   1674811.13
 3.44000006   1675115.25
 3.63000011   1675419.13
 3.81999993   1675722.13
 4.01000023   1676025.5
 4.19999981   1676329.5
 4.38999987   1676635.38
 4.57999992   1676940.5
 4.76999998   1677249.63
 4.96000004   1677560.25
 5.1500001   1677870.75
 5.34000015   1678181.88
 5.53000021   1678490.
 5.71999979   1678794.63
 5.90999985   1679094.75
 6.0999999   1679390.
 6.28999996   1679683.75
 6.48000002   1679977.88
 6.67000008   1680275.75
 6.86000013   1680577.13
 7.05000019   1680884.13
 7.23999977   1681192.5
 7.42999983   1681500.25
 7.61999989   1681806.5
 7.80999994   1682107.5
 8.   1682402.38
 8.18999958   1682692.63
 8.38000011   1682984.25
 8.56999969   1683276.88
 8.76000023   1683573.63
 8.94999981   1683876.88
 9.14000034   1684184.13
 9.32999992   1684494.5
 9.52000046   1684802.88
 9.71000004   1685109.75
 9.89999962   1685409.38
 10.0900002   1685707.
 10.2799997   1686002.13
 10.4700003   1686295.88
 10.6599998   1686593.13
 10.8500004   1686895.38
 11.04   1687202.13
 11.2299995   1687512.13
 11.4200001   1687825.
 11.6099997   1688135.63
 11.8000002   1688441.88
 11.9899998   1688743.25
 12.1800003   1689036.75
 12.3699999   1689326.88
 12.5600004   1689615.38
 12.75   1689907.13
 12.9399996   1690201.25
 13.1300001   1690500.88
 13.3199997   1690804.63
 13.5100002   1691111.
 13.6999998   1691418.13
 13.8900003   1691721.13
 14.0799999   1692018.13
 14.2700005   1692309.63
 14.46   1692598.38
 14.6499996   1692883.75
 14.8400002   1693173.75
 15.0299997   1693469.38
 15.2200003   1693774.25
 15.4099998   1694086.63
 15.6000004   1694402.88
 15.79   1694720.38
 15.9799995   1695032.13
 16.1700001   1695336.88
 16.3600006   1695633.25
 16.5499992   1695922.88
 16.7399998   1696209.75
 16.9300003   1696501.
 17.1200008   1696795.13
 17.3099995   1697097.38
 17.5   1697402.25
 17.6900005   1697710.13
 17.8799992   1698014.25
 18.0699997   1698314.63
 18.2600002   1698610.88
 18.4500008   1698901.13
 18.6399994   1699189.13
 18.8299999   1699476.13
 19.0200005   1699764.5
 19.2099991   1700053.88
 19.3999996   1700346.88
 19.5900002   1700640.38
 19.7800007   1700936.
 19.9699993   1701231.25
 20.1599998   1701526.25
 20.3500004   1701821.38
 20.5400009   1702115.13
 20.7299995   1702406.38
 20.9200001   1702698.
 21.1100006   1702987.38
 21.2999992   1703276.88
 21.4899998   1703571.
 21.6800003   1703866.5
 21.8700008   1704165.63
 22.0599995   1704467.25
 22.25   1704768.13
 22.4400005   1705064.5
 22.6299992   1705357.88
 22.8199997   1705644.
 23.0100002   1705927.25
 23.2000008   1706209.5
 23.3899994   1706494.13
 23.5799999   1706784.
 23.7700005   1707077.5
 23.9599991   1707376.25
 24.1499996   1707676.38
 24.3400002   1707972.25
 24.5300007   1708262.75
 24.7199993   1708547.13
 24.9099998   1708825.5
 25.1000004   1709100.25
 25.2900009   1709376.13
 25.4799995   1709654.25
 25.6700001   1709939.25
 25.8600006   1710229.63
 26.0499992   1710524.25
 26.2399998   1710820.88
 26.4300003   1711115.5
 26.6200008   1711406.63
 26.8099995   1711695.38
