 -30.   9253193.
 -29.8099995   9255086.
 -29.6200008   9256981.
 -29.4300003   9258876.
 -29.2399998   9260767.
 -29.0499992   9262660.
 -28.8600006   9264554.
 -28.6700001   9266453.
 -28.4799995   9268351.
 -28.2900009   9270247.
 -28.1000004   9272141.
 -27.9099998   9274034.
 -27.7199993   9275930.
 -27.5300007   9277830.
 -27.3400002   9279729.
 -27.1499996   9281626.
 -26.9599991   9283524.
 -26.7700005   9285417.
 -26.5799999   9287314.
 -26.3899994   9289212.
 -26.2000008   9291110.
 -26.0100002   9293007.
 -25.8199997   9294903.
 -25.6299992   9296798.
 -25.4400005   9298694.
 -25.25   9300591.
 -25.0599995   9302492.
 -24.8700008   9304389.
 -24.6800003   9306285.
 -24.4899998   9308177.
 -24.2999992   9310072.
 -24.1100006   9311967.
 -23.9200001   9313866.
 -23.7299995   9315765.
 -23.5400009   9317660.
 -23.3500004   9319554.
 -23.1599998   9321450.
 -22.9699993   9323347.
 -22.7800007   9325249.
 -22.5900002   9327148.
 -22.3999996   9329046.
 -22.2099991   9330939.
 -22.0200005   9332833.
 -21.8299999   9334728.
 -21.6399994   9336627.
 -21.4500008   9338529.
 -21.2600002   9340428.
 -21.0699997   9342324.
 -20.8799992   9344219.
 -20.6900005   9346117.
 -20.5   9348018.
 -20.3099995   9349918.
 -20.1200008   9351819.
 -19.9300003   9353718.
 -19.7399998   9355615.
 -19.5499992   9357515.
 -19.3600006   9359418.
 -19.1700001   9361323.
 -18.9799995   9363226.
 -18.7900009   9365126.
 -18.6000004   9367025.
 -18.4099998   9368925.
 -18.2199993   9370828.
 -18.0300007   9372734.
 -17.8400002   9374639.
 -17.6499996   9376543.
 -17.4599991   9378443.
 -17.2700005   9380346.
 -17.0799999   9382252.
 -16.8899994   9384162.
 -16.7000008   9386071.
 -16.5100002   9387978.
 -16.3199997   9389880.
 -16.1299992   9391782.
 -15.9399996   9393689.
 -15.75   9395600.
 -15.5600004   9397512.
 -15.3699999   9399420.
 -15.1800003   9401326.
 -14.9899998   9403228.
 -14.8000002   9405134.
 -14.6099997   9407041.
 -14.4200001   9408952.
 -14.2299995   9410861.
 -14.04   9412763.
 -13.8500004   9414664.
 -13.6599998   9416568.
 -13.4700003   9418479.
 -13.2799997   9420389.
 -13.0900002   9422300.
 -12.8999996   9424204.
 -12.71   9426106.
 -12.5200005   9428008.
 -12.3299999   9429916.
 -12.1400003   9431825.
 -11.9499998   9433733.
 -11.7600002   9435635.
 -11.5699997   9437533.
 -11.3800001   9439433.
 -11.1899996   9441340.
 -11.   9443251.
 -10.8100004   9445160.
 -10.6199999   9447062.
 -10.4300003   9448960.
 -10.2399998   9450854.
 -10.0500002   9452759.
 -9.85999966   9454667.
 -9.67000008   9456573.
 -9.47999954   9458477.
 -9.28999996   9460375.
 -9.10000038   9462275.
 -8.90999985   9464182.
 -8.72000027   9466090.
 -8.52999973   9467997.
 -8.34000015   9469898.
 -8.14999962   9471793.
 -7.96000004   9473691.
 -7.76999998   9475595.
 -7.57999992   9477502.
 -7.38999987   9479411.
 -7.19999981   9481316.
 -7.01000023   9483217.
 -6.82000017   9485118.
 -6.63000011   9487023.
 -6.44000006   9488933.
 -6.25   9490842.
 -6.05999994   9492746.
 -5.86999989   9494645.
 -5.67999983   9496544.
 -5.48999977   9498447.
 -5.30000019   9500357.
 -5.11000013   9502268.
 -4.92000008   9504180.
 -4.73000002   9506086.
 -4.53999996   9507990.
 -4.3499999   9509900.
 -4.15999985   9511816.
 -3.97000003   9513738.
 -3.77999997   9515657.
 -3.58999991   9517568.
 -3.4000001   9519474.
 -3.21000004   9521385.
 -3.01999998   9523305.
 -2.82999992   9525229.
 -2.6400001   9527149.
 -2.45000005   9529064.
 -2.25999999   9530973.
 -2.06999993   9532886.
 -1.88   9534808.
 -1.69000006   9536733.
 -1.5   9538657.
 -1.30999994   9540571.
 -1.12   9542478.
 -0.930000007   9544392.
 -0.74000001   9546313.
 -0.550000012   9548243.
 -0.360000014   9550170.
 -0.170000002   9552090.
 1.999999955E-2   9554002.
 0.209999993   9555912.
 0.400000006   9557831.
 0.589999974   9559754.
 0.779999971   9561678.
 0.970000029   9563592.
 1.15999997   9565497.
 1.35000002   9567405.
 1.53999996   9569322.
 1.73000002   9571248.
 1.91999996   9573178.
 2.1099999   9575100.
 2.29999995   9577014.
 2.49000001   9578928.
 2.68000007   9580851.
 2.86999989   9582781.
 3.05999994   9584711.
 3.25   9586632.
 3.44000006   9588542.
 3.63000011   9590450.
 3.81999993   9592367.
 4.01000023   9594292.
 4.19999981   9596219.
 4.38999987   9598142.
 4.57999992   9600055.
 4.76999998   9601963.
 4.96000004   9603877.
 5.1500001   9605799.
 5.34000015   9607726.
 5.53000021   9609649.
 5.71999979   9611565.
 5.90999985   9613477.
 6.0999999   9615396.
 6.28999996   9617322.
 6.48000002   9619251.
 6.67000008   9621171.
 6.86000013   9623079.
 7.05000019   9624983.
 7.23999977   9626890.
 7.42999983   9628809.
 7.61999989   9630732.
 7.80999994   9632651.
 8.   9634563.
 8.18999958   9636473.
 8.38000011   9638387.
 8.56999969   9640307.
 8.76000023   9642231.
 8.94999981   9644153.
 9.14000034   9646067.
 9.32999992   9647976.
 9.52000046   9649888.
 9.71000004   9651811.
 9.89999962   9653737.
 10.0900002   9655659.
 10.2799997   9657573.
 10.4700003   9659481.
 10.6599998   9661394.
 10.8500004   9663312.
 11.04   9665235.
 11.2299995   9667157.
 11.4200001   9669073.
 11.6099997   9670984.
 11.8000002   9672896.
 11.9899998   9674815.
 12.1800003   9676740.
 12.3699999   9678663.
 12.5600004   9680582.
 12.75   9682499.
 12.9399996   9684420.
 13.1300001   9686345.
 13.3199997   9688277.
 13.5100002   9690208.
 13.6999998   9692133.
 13.8900003   9694052.
 14.0799999   9695970.
 14.2700005   9697894.
 14.46   9699824.
 14.6499996   9701756.
 14.8400002   9703680.
 15.0299997   9705599.
 15.2200003   9707515.
 15.4099998   9709436.
 15.6000004   9711365.
 15.79   9713296.
 15.9799995   9715225.
 16.1700001   9717146.
 16.3600006   9719066.
 16.5499992   9720991.
 16.7399998   9722922.
 16.9300003   9724859.
 17.1200008   9726792.
 17.3099995   9728714.
 17.5   9730636.
 17.6900005   9732560.
 17.8799992   9734494.
 18.0699997   9736428.
 18.2600002   9738357.
 18.4500008   9740275.
 18.6399994   9742191.
 18.8299999   9744110.
 19.0200005   9746038.
 19.2099991   9747969.
 19.3999996   9749897.
 19.5900002   9751819.
 19.7800007   9753740.
 19.9699993   9755663.
 20.1599998   9757590.
 20.3500004   9759523.
 20.5400009   9761452.
 20.7299995   9763378.
 20.9200001   9765301.
 21.1100006   9767225.
 21.2999992   9769156.
 21.4899998   9771088.
 21.6800003   9773017.
 21.8700008   9774939.
 22.0599995   9776858.
 22.25   9778780.
 22.4400005   9780705.
 22.6299992   9782634.
 22.8199997   9784561.
 23.0100002   9786482.
 23.2000008   9788400.
 23.3899994   9790317.
 23.5799999   9792241.
 23.7700005   9794166.
 23.9599991   9796091.
 24.1499996   9798013.
 24.3400002   9799936.
 24.5300007   9801861.
 24.7199993   9803792.
 24.9099998   9805725.
 25.1000004   9807655.
 25.2900009   9809579.
 25.4799995   9811499.
 25.6700001   9813419.
 25.8600006   9815341.
 26.0499992   9817264.
 26.2399998   9819187.
 26.4300003   9821104.
 26.6200008   9823018.
 26.8099995   9824928.
