 -30.   -5794518.5
 -29.8099995   -5795694.
 -29.6200008   -5796866.5
 -29.4300003   -5798036.
 -29.2399998   -5799204.
 -29.0499992   -5800374.
 -28.8600006   -5801549.
 -28.6700001   -5802724.5
 -28.4799995   -5803903.
 -28.2900009   -5805081.
 -28.1000004   -5806256.5
 -27.9099998   -5807427.
 -27.7199993   -5808593.
 -27.5300007   -5809756.
 -27.3400002   -5810915.
 -27.1499996   -5812075.5
 -26.9599991   -5813237.5
 -26.7700005   -5814404.
 -26.5799999   -5815572.5
 -26.3899994   -5816747.
 -26.2000008   -5817923.
 -26.0100002   -5819097.5
 -25.8199997   -5820268.
 -25.6299992   -5821433.
 -25.4400005   -5822592.
 -25.25   -5823747.
 -25.0599995   -5824901.5
 -24.8700008   -5826056.
 -24.6800003   -5827212.5
 -24.4899998   -5828373.5
 -24.2999992   -5829537.5
 -24.1100006   -5830702.5
 -23.9200001   -5831867.
 -23.7299995   -5833030.
 -23.5400009   -5834186.5
 -23.3500004   -5835338.5
 -23.1599998   -5836484.5
 -22.9699993   -5837630.5
 -22.7800007   -5838775.
 -22.5900002   -5839922.
 -22.3999996   -5841074.
 -22.2099991   -5842230.
 -22.0200005   -5843390.5
 -21.8299999   -5844553.5
 -21.6399994   -5845714.5
 -21.4500008   -5846873.
 -21.2600002   -5848027.
 -21.0699997   -5849175.
 -20.8799992   -5850321.5
 -20.6900005   -5851467.
 -20.5   -5852614.5
 -20.3099995   -5853765.5
 -20.1200008   -5854920.
 -19.9300003   -5856079.5
 -19.7399998   -5857241.5
 -19.5499992   -5858403.5
 -19.3600006   -5859565.
 -19.1700001   -5860719.5
 -18.9799995   -5861872.
 -18.7900009   -5863020.
 -18.6000004   -5864166.5
 -18.4099998   -5865313.
 -18.2199993   -5866464.5
 -18.0300007   -5867619.5
 -17.8400002   -5868778.
 -17.6499996   -5869939.5
 -17.4599991   -5871100.5
 -17.2700005   -5872262.
 -17.0799999   -5873420.
 -16.8899994   -5874574.
 -16.7000008   -5875723.
 -16.5100002   -5876869.
 -16.3199997   -5878014.5
 -16.1299992   -5879160.5
 -15.9399996   -5880310.
 -15.75   -5881461.5
 -15.5600004   -5882617.
 -15.3699999   -5883774.
 -15.1800003   -5884934.5
 -14.9899998   -5886090.5
 -14.8000002   -5887247.5
 -14.6099997   -5888401.
 -14.4200001   -5889549.5
 -14.2299995   -5890692.
 -14.04   -5891834.
 -13.8500004   -5892976.
 -13.6599998   -5894121.
 -13.4700003   -5895267.5
 -13.2799997   -5896416.
 -13.0900002   -5897567.5
 -12.8999996   -5898721.
 -12.71   -5899871.5
 -12.5200005   -5901021.
 -12.3299999   -5902165.5
 -12.1400003   -5903306.5
 -11.9499998   -5904445.
 -11.7600002   -5905580.
 -11.5699997   -5906717.
 -11.3800001   -5907856.5
 -11.1899996   -5908998.5
 -11.   -5910144.
 -10.8100004   -5911291.5
 -10.6199999   -5912438.5
 -10.4300003   -5913583.
 -10.2399998   -5914725.5
 -10.0500002   -5915863.
 -9.85999966   -5916994.5
 -9.67000008   -5918125.
 -9.47999954   -5919255.
 -9.28999996   -5920385.
 -9.10000038   -5921521.5
 -8.90999985   -5922660.5
 -8.72000027   -5923804.
 -8.52999973   -5924948.
 -8.34000015   -5926093.5
 -8.14999962   -5927233.
 -7.96000004   -5928368.
 -7.76999998   -5929495.
 -7.57999992   -5930619.5
 -7.38999987   -5931742.5
 -7.19999981   -5932867.5
 -7.01000023   -5933999.5
 -6.82000017   -5935137.
 -6.63000011   -5936279.
 -6.44000006   -5937423.5
 -6.25   -5938566.5
 -6.05999994   -5939703.5
 -5.86999989   -5940833.5
 -5.67999983   -5941957.
 -5.48999977   -5943077.
 -5.30000019   -5944193.5
 -5.11000013   -5945312.
 -4.92000008   -5946437.
 -4.73000002   -5947567.5
 -4.53999996   -5948701.
 -4.3499999   -5949838.5
 -4.15999985   -5950977.
 -3.97000003   -5952111.5
 -3.77999997   -5953241.
 -3.58999991   -5954365.
 -3.4000001   -5955483.5
 -3.21000004   -5956600.
 -3.01999998   -5957717.5
 -2.82999992   -5958838.5
 -2.6400001   -5959963.5
 -2.45000005   -5961097.
 -2.25999999   -5962233.5
 -2.06999993   -5963368.5
 -1.88   -5964501.
 -1.69000006   -5965629.5
 -1.5   -5966749.
 -1.30999994   -5967863.5
 -1.12   -5968973.5
 -0.930000007   -5970083.5
 -0.74000001   -5971198.
 -0.550000012   -5972319.
 -0.360000014   -5973447.
 -0.170000002   -5974580.5
 1.999999955E-2   -5975716.5
 0.209999993   -5976848.5
 0.400000006   -5977974.5
 0.589999974   -5979092.
 0.779999971   -5980203.
 0.970000029   -5981310.5
 1.15999997   -5982416.5
 1.35000002   -5983528.
 1.53999996   -5984647.
 1.73000002   -5985774.5
 1.91999996   -5986906.
 2.1099999   -5988041.
 2.29999995   -5989173.5
 2.49000001   -5990298.
 2.68000007   -5991415.5
 2.86999989   -5992524.5
 3.05999994   -5993630.
 3.25   -5994732.5
 3.44000006   -5995838.
 3.63000011   -5996948.5
 3.81999993   -5998065.5
 4.01000023   -5999185.5
 4.19999981   -6000309.5
 4.38999987   -6001433.
 4.57999992   -6002554.
 4.76999998   -6003670.
 4.96000004   -6004779.
 5.1500001   -6005884.5
 5.34000015   -6006986.
 5.53000021   -6008085.
 5.71999979   -6009185.
 5.90999985   -6010290.5
 6.0999999   -6011401.
 6.28999996   -6012516.5
 6.48000002   -6013637.5
 6.67000008   -6014760.
 6.86000013   -6015879.5
 7.05000019   -6016993.5
 7.23999977   -6018100.
 7.42999983   -6019199.5
 7.61999989   -6020297.
 7.80999994   -6021393.
 8.   -6022492.5
 8.18999958   -6023598.
 8.38000011   -6024711.5
 8.56999969   -6025828.
 8.76000023   -6026949.
 8.94999981   -6028065.5
 9.14000034   -6029175.
 9.32999992   -6030275.
 9.52000046   -6031366.5
 9.71000004   -6032452.5
 9.89999962   -6033539.
 10.0900002   -6034628.5
 10.2799997   -6035723.
 10.4700003   -6036823.
 10.6599998   -6037930.
 10.8500004   -6039036.5
 11.04   -6040141.
 11.2299995   -6041239.5
 11.4200001   -6042334.
 11.6099997   -6043422.5
 11.8000002   -6044509.
 11.9899998   -6045595.
 12.1800003   -6046685.5
 12.3699999   -6047780.
 12.5600004   -6048880.
 12.75   -6049985.5
 12.9399996   -6051096.
 13.1300001   -6052204.
 13.3199997   -6053311.5
 13.5100002   -6054414.5
 13.6999998   -6055513.5
 13.8900003   -6056608.5
 14.0799999   -6057701.5
 14.2700005   -6058796.
 14.46   -6059891.5
 14.6499996   -6060990.5
 14.8400002   -6062090.5
 15.0299997   -6063193.
 15.2200003   -6064295.
 15.4099998   -6065397.
 15.6000004   -6066496.5
 15.79   -6067593.
 15.9799995   -6068688.5
 16.1700001   -6069780.
 16.3600006   -6070870.
 16.5499992   -6071958.5
 16.7399998   -6073047.5
 16.9300003   -6074137.
 17.1200008   -6075228.5
 17.3099995   -6076320.
 17.5   -6077411.
 17.6900005   -6078501.5
 17.8799992   -6079589.5
 18.0699997   -6080673.5
 18.2600002   -6081756.5
 18.4500008   -6082837.
 18.6399994   -6083920.5
 18.8299999   -6085005.5
 19.0200005   -6086094.
 19.2099991   -6087185.5
 19.3999996   -6088277.5
 19.5900002   -6089368.5
 19.7800007   -6090460.
 19.9699993   -6091550.
 20.1599998   -6092638.5
 20.3500004   -6093726.5
 20.5400009   -6094813.5
 20.7299995   -6095900.5
 20.9200001   -6096988.
 21.1100006   -6098076.
 21.2999992   -6099164.
 21.4899998   -6100250.
 21.6800003   -6101338.5
 21.8700008   -6102429.
 22.0599995   -6103517.5
 22.25   -6104607.
 22.4400005   -6105694.
 22.6299992   -6106779.
 22.8199997   -6107858.
 23.0100002   -6108937.
 23.2000008   -6110014.5
 23.3899994   -6111096.
 23.5799999   -6112181.5
 23.7700005   -6113271.
 23.9599991   -6114361.
 24.1499996   -6115453.
 24.3400002   -6116537.5
 24.5300007   -6117618.5
 24.7199993   -6118693.5
 24.9099998   -6119763.
 25.1000004   -6120833.5
 25.2900009   -6121906.5
 25.4799995   -6122983.
 25.6700001   -6124065.5
 25.8600006   -6125149.
 26.0499992   -6126235.
 26.2399998   -6127319.5
 26.4300003   -6128400.
 26.6200008   -6129474.5
 26.8099995   -6130543.
