 -30.   -7695612.5
 -29.8099995   -7697171.
 -29.6200008   -7698717.
 -29.4300003   -7700259.
 -29.2399998   -7701798.5
 -29.0499992   -7703345.5
 -28.8600006   -7704901.
 -28.6700001   -7706464.5
 -28.4799995   -7708034.5
 -28.2900009   -7709602.
 -28.1000004   -7711165.
 -27.9099998   -7712716.
 -27.7199993   -7714255.5
 -27.5300007   -7715783.5
 -27.3400002   -7717307.
 -27.1499996   -7718826.
 -26.9599991   -7720354.
 -26.7700005   -7721891.5
 -26.5799999   -7723442.
 -26.3899994   -7725005.
 -26.2000008   -7726572.
 -26.0100002   -7728132.5
 -25.8199997   -7729682.
 -25.6299992   -7731221.5
 -25.4400005   -7732746.
 -25.25   -7734265.5
 -25.0599995   -7735785.5
 -24.8700008   -7737312.5
 -24.6800003   -7738852.
 -24.4899998   -7740400.5
 -24.2999992   -7741957.
 -24.1100006   -7743515.5
 -23.9200001   -7745070.5
 -23.7299995   -7746617.
 -23.5400009   -7748152.5
 -23.3500004   -7749679.5
 -23.1599998   -7751197.5
 -22.9699993   -7752709.5
 -22.7800007   -7754221.5
 -22.5900002   -7755734.5
 -22.3999996   -7757259.
 -22.2099991   -7758795.5
 -22.0200005   -7760344.5
 -21.8299999   -7761907.5
 -21.6399994   -7763476.
 -21.4500008   -7765038.5
 -21.2600002   -7766590.
 -21.0699997   -7768124.
 -20.8799992   -7769643.
 -20.6900005   -7771149.
 -20.5   -7772655.
 -20.3099995   -7774169.5
 -20.1200008   -7775701.5
 -19.9300003   -7777250.5
 -19.7399998   -7778814.
 -19.5499992   -7780383.5
 -19.3600006   -7781951.
 -19.1700001   -7783507.5
 -18.9799995   -7785046.
 -18.7900009   -7786564.5
 -18.6000004   -7788070.5
 -18.4099998   -7789569.
 -18.2199993   -7791073.5
 -18.0300007   -7792589.5
 -17.8400002   -7794122.
 -17.6499996   -7795673.
 -17.4599991   -7797238.
 -17.2700005   -7798809.5
 -17.0799999   -7800373.
 -16.8899994   -7801922.5
 -16.7000008   -7803449.
 -16.5100002   -7804956.5
 -16.3199997   -7806451.5
 -16.1299992   -7807946.
 -15.9399996   -7809454.5
 -15.75   -7810988.5
 -15.5600004   -7812550.5
 -15.3699999   -7814135.
 -15.1800003   -7815725.5
 -14.9899998   -7817311.
 -14.8000002   -7818872.5
 -14.6099997   -7820409.
 -14.4200001   -7821922.
 -14.2299995   -7823418.
 -14.04   -7824913.
 -13.8500004   -7826419.
 -13.6599998   -7827948.5
 -13.4700003   -7829498.5
 -13.2799997   -7831065.5
 -13.0900002   -7832637.5
 -12.8999996   -7834204.5
 -12.71   -7835755.
 -12.5200005   -7837288.
 -12.3299999   -7838804.
 -12.1400003   -7840305.5
 -11.9499998   -7841803.5
 -11.7600002   -7843304.5
 -11.5699997   -7844816.5
 -11.3800001   -7846344.5
 -11.1899996   -7847889.5
 -11.   -7849448.5
 -10.8100004   -7851011.5
 -10.6199999   -7852570.
 -10.4300003   -7854117.
 -10.2399998   -7855642.
 -10.0500002   -7857146.
 -9.85999966   -7858635.5
 -9.67000008   -7860119.5
 -9.47999954   -7861608.
 -9.28999996   -7863108.5
 -9.10000038   -7864628.5
 -8.90999985   -7866161.
 -8.72000027   -7867701.5
 -8.52999973   -7869237.5
 -8.34000015   -7870760.5
 -8.14999962   -7872268.
 -7.96000004   -7873759.
 -7.76999998   -7875242.
 -7.57999992   -7876724.5
 -7.38999987   -7878215.5
 -7.19999981   -7879719.5
 -7.01000023   -7881235.5
 -6.82000017   -7882762.5
 -6.63000011   -7884297.5
 -6.44000006   -7885832.5
 -6.25   -7887367.5
 -6.05999994   -7888894.5
 -5.86999989   -7890408.5
 -5.67999983   -7891909.
 -5.48999977   -7893399.
 -5.30000019   -7894881.
 -5.11000013   -7896360.5
 -4.92000008   -7897849.5
 -4.73000002   -7899348.
 -4.53999996   -7900861.
 -4.3499999   -7902388.5
 -4.15999985   -7903918.
 -3.97000003   -7905444.5
 -3.77999997   -7906956.
 -3.58999991   -7908451.5
 -3.4000001   -7909929.5
 -3.21000004   -7911402.5
 -3.01999998   -7912877.
 -2.82999992   -7914358.5
 -2.6400001   -7915855.
 -2.45000005   -7917361.
 -2.25999999   -7918880.
 -2.06999993   -7920403.5
 -1.88   -7921927.
 -1.69000006   -7923444.5
 -1.5   -7924950.5
 -1.30999994   -7926444.
 -1.12   -7927927.5
 -0.930000007   -7929407.
 -0.74000001   -7930888.
 -0.550000012   -7932376.
 -0.360000014   -7933879.5
 -0.170000002   -7935397.
 1.999999955E-2   -7936927.5
 0.209999993   -7938462.5
 0.400000006   -7939992.5
 0.589999974   -7941505.5
 0.779999971   -7942998.
 0.970000029   -7944466.
 1.15999997   -7945919.5
 1.35000002   -7947370.
 1.53999996   -7948831.5
 1.73000002   -7950312.5
 1.91999996   -7951817.
 2.1099999   -7953337.5
 2.29999995   -7954868.5
 2.49000001   -7956394.5
 2.68000007   -7957910.5
 2.86999989   -7959408.
 3.05999994   -7960892.
 3.25   -7962367.5
 3.44000006   -7963842.
 3.63000011   -7965328.
 3.81999993   -7966826.5
 4.01000023   -7968339.
 4.19999981   -7969860.
 4.38999987   -7971382.
 4.57999992   -7972899.5
 4.76999998   -7974408.
 4.96000004   -7975902.5
 5.1500001   -7977381.
 5.34000015   -7978845.5
 5.53000021   -7980297.5
 5.71999979   -7981747.5
 5.90999985   -7983201.
 6.0999999   -7984669.
 6.28999996   -7986153.
 6.48000002   -7987653.
 6.67000008   -7989161.5
 6.86000013   -7990670.
 7.05000019   -7992165.5
 7.23999977   -7993645.5
 7.42999983   -7995110.
 7.61999989   -7996560.5
 7.80999994   -7998012.
 8.   -7999470.
 8.18999958   -8000946.5
 8.38000011   -8002443.5
 8.56999969   -8003955.5
 8.76000023   -8005474.5
 8.94999981   -8006989.5
 9.14000034   -8008490.5
 9.32999992   -8009973.
 9.52000046   -8011437.
 9.71000004   -8012888.5
 9.89999962   -8014334.5
 10.0900002   -8015778.5
 10.2799997   -8017233.5
 10.4700003   -8018700.
 10.6599998   -8020179.5
 10.8500004   -8021670.5
 11.04   -8023165.
 11.2299995   -8024657.5
 11.4200001   -8026134.5
 11.6099997   -8027599.
 11.8000002   -8029048.
 11.9899998   -8030488.
 12.1800003   -8031924.
 12.3699999   -8033370.
 12.5600004   -8034834.
 12.75   -8036319.5
 12.9399996   -8037821.
 13.1300001   -8039333.
 13.3199997   -8040844.5
 13.5100002   -8042343.5
 13.6999998   -8043824.5
 13.8900003   -8045286.5
 14.0799999   -8046736.5
 14.2700005   -8048180.
 14.46   -8049627.5
 14.6499996   -8051088.
 14.8400002   -8052566.
 15.0299997   -8054057.
 15.2200003   -8055557.
 15.4099998   -8057055.5
 15.6000004   -8058547.
 15.79   -8060024.5
 15.9799995   -8061487.
 16.1700001   -8062934.5
 16.3600006   -8064374.5
 16.5499992   -8065813.
 16.7399998   -8067257.5
 16.9300003   -8068713.5
 17.1200008   -8070182.5
 17.3099995   -8071665.5
 17.5   -8073155.
 17.6900005   -8074640.5
 17.8799992   -8076115.5
 18.0699997   -8077571.5
 18.2600002   -8079010.
 18.4500008   -8080431.5
 18.6399994   -8081844.
 18.8299999   -8083263.5
 19.0200005   -8084697.5
 19.2099991   -8086152.5
 19.3999996   -8087628.5
 19.5900002   -8089114.5
 19.7800007   -8090603.5
 19.9699993   -8092080.5
 20.1599998   -8093542.5
 20.3500004   -8094985.
 20.5400009   -8096415.
 20.7299995   -8097837.5
 20.9200001   -8099260.5
 21.1100006   -8100697.
 21.2999992   -8102146.
 21.4899998   -8103608.5
 21.6800003   -8105078.5
 21.8700008   -8106551.
 22.0599995   -8108021.5
 22.25   -8109483.5
 22.4400005   -8110936.
 22.6299992   -8112379.
 22.8199997   -8113814.
 23.0100002   -8115241.5
 23.2000008   -8116669.5
 23.3899994   -8118103.5
 23.5799999   -8119548.
 23.7700005   -8121004.5
 23.9599991   -8122474.
 24.1499996   -8123952.
 24.3400002   -8125429.5
 24.5300007   -8126898.
 24.7199993   -8128354.
 24.9099998   -8129792.5
 25.1000004   -8131218.
 25.2900009   -8132640.
 25.4799995   -8134061.
 25.6700001   -8135492.5
 25.8600006   -8136939.5
 26.0499992   -8138397.5
 26.2399998   -8139862.5
 26.4300003   -8141327.5
 26.6200008   -8142786.5
 26.8099995   -8144235.
