 -30.   297712.625
 -29.8099995   297830.344
 -29.6200008   297990.875
 -29.4300003   298174.188
 -29.2399998   298350.031
 -29.0499992   298498.563
 -28.8600006   298609.
 -28.6700001   298684.5
 -28.4799995   298739.688
 -28.2900009   298796.063
 -28.1000004   298875.188
 -27.9099998   298988.844
 -27.7199993   299145.438
 -27.5300007   299333.281
 -27.3400002   299536.469
 -27.1499996   299733.594
 -26.9599991   299902.563
 -26.7700005   300028.75
 -26.5799999   300111.781
 -26.3899994   300156.875
 -26.2000008   300185.906
 -26.0100002   300221.906
 -25.8199997   300284.125
 -25.6299992   300388.344
 -25.4400005   300534.531
 -25.25   300714.375
 -25.0599995   300908.5
 -24.8700008   301093.469
 -24.6800003   301247.063
 -24.4899998   301356.281
 -24.2999992   301421.938
 -24.1100006   301456.25
 -23.9200001   301484.406
 -23.7299995   301528.75
 -23.5400009   301610.063
 -23.3500004   301731.188
 -23.1599998   301889.688
 -22.9699993   302064.625
 -22.7800007   302232.844
 -22.5900002   302372.75
 -22.3999996   302472.594
 -22.2099991   302527.906
 -22.0200005   302549.688
 -21.8299999   302555.531
 -21.6399994   302569.844
 -21.4500008   302608.188
 -21.2600002   302684.531
 -21.0699997   302796.875
 -20.8799992   302934.406
 -20.6900005   303082.563
 -20.5   303224.969
 -20.3099995   303343.781
 -20.1200008   303440.031
 -19.9300003   303504.281
 -19.7399998   303548.719
 -19.5499992   303584.375
 -19.3600006   303626.906
 -19.1700001   303689.063
 -18.9799995   303777.281
 -18.7900009   303888.563
 -18.6000004   304015.719
 -18.4099998   304145.313
 -18.2199993   304260.531
 -18.0300007   304353.531
 -17.8400002   304417.938
 -17.6499996   304461.5
 -17.4599991   304490.219
 -17.2700005   304522.719
 -17.0799999   304576.594
 -16.8899994   304659.844
 -16.7000008   304774.313
 -16.5100002   304911.719
 -16.3199997   305056.156
 -16.1299992   305187.031
 -15.9399996   305290.188
 -15.75   305354.594
 -15.5600004   305391.563
 -15.3699999   305407.344
 -15.1800003   305417.969
 -14.9899998   305443.438
 -14.8000002   305496.75
 -14.6099997   305580.375
 -14.4200001   305691.5
 -14.2299995   305815.656
 -14.04   305935.938
 -13.8500004   306038.438
 -13.6599998   306115.688
 -13.4700003   306166.156
 -13.2799997   306198.344
 -13.0900002   306222.594
 -12.8999996   306252.813
 -12.71   306301.75
 -12.5200005   306377.219
 -12.3299999   306474.531
 -12.1400003   306592.844
 -11.9499998   306714.844
 -11.7600002   306828.375
 -11.5699997   306919.344
 -11.3800001   306985.688
 -11.1899996   307025.5
 -11.   307046.969
 -10.8100004   307064.469
 -10.6199999   307088.625
 -10.4300003   307135.688
 -10.2399998   307208.281
 -10.0500002   307309.406
 -9.85999966   307432.094
 -9.67000008   307560.813
 -9.47999954   307678.75
 -9.28999996   307770.406
 -9.10000038   307828.875
 -8.90999985   307858.063
 -8.72000027   307871.281
 -8.52999973   307881.688
 -8.34000015   307912.875
 -8.14999962   307976.125
 -7.96000004   308075.781
 -7.76999998   308206.188
 -7.57999992   308350.438
 -7.38999987   308485.594
 -7.19999981   308592.563
 -7.01000023   308659.219
 -6.82000017   308689.719
 -6.63000011   308694.219
 -6.44000006   308698.25
 -6.25   308722.188
 -6.05999994   308779.438
 -5.86999989   308876.688
 -5.67999983   309003.813
 -5.48999977   309144.469
 -5.30000019   309281.219
 -5.11000013   309396.688
 -4.92000008   309480.063
 -4.73000002   309533.344
 -4.53999996   309563.094
 -4.3499999   309584.781
 -4.15999985   309615.063
 -3.97000003   309664.125
 -3.77999997   309741.063
 -3.58999991   309843.125
 -3.4000001   309963.688
 -3.21000004   310092.844
 -3.01999998   310216.031
 -2.82999992   310318.25
 -2.6400001   310392.531
 -2.45000005   310437.25
 -2.25999999   310458.625
 -2.06999993   310468.563
 -1.88   310486.281
 -1.69000006   310529.
 -1.5   310606.156
 -1.30999994   310717.219
 -1.12   310853.156
 -0.930000007   310996.469
 -0.74000001   311128.
 -0.550000012   311230.313
 -0.360000014   311296.344
 -0.170000002   311327.688
 1.999999955E-2   311336.781
 0.209999993   311345.844
 0.400000006   311372.469
 0.589999974   311431.469
 0.779999971   311527.25
 0.970000029   311652.969
 1.15999997   311793.031
 1.35000002   311927.5
 1.53999996   312040.625
 1.73000002   312119.344
 1.91999996   312164.813
 2.1099999   312189.844
 2.29999995   312208.469
 2.49000001   312236.594
 2.68000007   312294.563
 2.86999989   312382.781
 3.05999994   312499.594
 3.25   312633.938
 3.44000006   312768.406
 3.63000011   312882.875
 3.81999993   312970.906
 4.01000023   313028.375
 4.19999981   313057.438
 4.38999987   313072.531
 4.57999992   313089.313
 4.76999998   313123.969
 4.96000004   313182.563
 5.1500001   313273.469
 5.34000015   313391.156
 5.53000021   313522.125
 5.71999979   313650.906
 5.90999985   313764.406
 6.0999999   313850.313
 6.28999996   313908.031
 6.48000002   313943.938
 6.67000008   313966.25
 6.86000013   313992.
 7.05000019   314035.188
 7.23999977   314105.906
 7.42999983   314206.938
 7.61999989   314334.031
 7.80999994   314470.594
 8.   314599.156
 8.18999958   314702.344
 8.38000011   314775.5
 8.56999969   314815.594
 8.76000023   314833.313
 8.94999981   314847.469
 9.14000034   314873.938
 9.32999992   314926.125
 9.52000046   315011.969
 9.71000004   315128.469
 9.89999962   315265.25
 10.0900002   315404.719
 10.2799997   315530.875
 10.4700003   315629.281
 10.6599998   315696.719
 10.8500004   315740.406
 11.04   315772.719
 11.2299995   315812.844
 11.4200001   315872.281
 11.6099997   315964.906
 11.8000002   316088.531
 11.9899998   316235.906
 12.1800003   316389.938
 12.3699999   316528.188
 12.5600004   316637.281
 12.75   316705.563
 12.9399996   316739.156
 13.1300001   316744.938
 13.3199997   316742.688
 13.5100002   316750.688
 13.6999998   316784.563
 13.8900003   316844.125
 14.0799999   316933.563
 14.2700005   317036.531
 14.46   317138.563
 14.6499996   317230.281
 14.8400002   317296.063
 15.0299997   317334.938
 15.2200003   317352.625
 15.4099998   317358.281
 15.6000004   317367.188
 15.79   317399.969
 15.9799995   317463.813
 16.1700001   317559.438
 16.3600006   317685.375
 16.5499992   317828.813
 16.7399998   317972.5
 16.9300003   318102.063
 17.1200008   318204.688
 17.3099995   318276.938
 17.5   318325.281
 17.6900005   318363.656
 17.8799992   318408.781
 18.0699997   318480.906
 18.2600002   318582.656
 18.4500008   318718.313
 18.6399994   318871.25
 18.8299999   319030.188
 19.0200005   319169.75
 19.2099991   319281.563
 19.3999996   319360.875
 19.5900002   319407.313
 19.7800007   319434.563
 19.9699993   319460.219
 20.1599998   319504.781
 20.3500004   319579.406
 20.5400009   319686.75
 20.7299995   319826.5
 20.9200001   319975.625
 21.1100006   320117.219
 21.2999992   320237.344
 21.4899998   320322.563
 21.6800003   320377.688
 21.8700008   320405.844
 22.0599995   320428.125
 22.25   320462.875
 22.4400005   320522.625
 22.6299992   320613.156
 22.8199997   320728.781
 23.0100002   320858.656
 23.2000008   320982.094
 23.3899994   321086.875
 23.5799999   321162.969
 23.7700005   321209.063
 23.9599991   321233.938
 24.1499996   321250.25
 24.3400002   321266.25
 24.5300007   321301.813
 24.7199993   321360.5
 24.9099998   321446.094
 25.1000004   321555.75
 25.2900009   321674.563
 25.4799995   321791.656
 25.6700001   321889.594
 25.8600006   321965.813
 26.0499992   322015.75
 26.2399998   322050.719
 26.4300003   322080.406
 26.6200008   322118.531
 26.8099995   322179.344
