 -30.   7906175.
 -29.8099995   7907803.5
 -29.6200008   7909432.
 -29.4300003   7911055.
 -29.2399998   7912668.5
 -29.0499992   7914284.
 -28.8600006   7915909.5
 -28.6700001   7917547.
 -28.4799995   7919187.5
 -28.2900009   7920818.
 -28.1000004   7922439.5
 -27.9099998   7924052.
 -27.7199993   7925670.5
 -27.5300007   7927301.
 -27.3400002   7928940.5
 -27.1499996   7930577.5
 -26.9599991   7932204.
 -26.7700005   7933822.5
 -26.5799999   7935442.
 -26.3899994   7937071.
 -26.2000008   7938704.5
 -26.0100002   7940330.
 -25.8199997   7941937.5
 -25.6299992   7943531.
 -25.4400005   7945124.5
 -25.25   7946726.
 -25.0599995   7948338.
 -24.8700008   7949948.5
 -24.6800003   7951546.
 -24.4899998   7953135.5
 -24.2999992   7954726.
 -24.1100006   7956331.5
 -23.9200001   7957952.
 -23.7299995   7959578.
 -23.5400009   7961196.5
 -23.3500004   7962810.
 -23.1599998   7964426.5
 -22.9699993   7966060.5
 -22.7800007   7967710.5
 -22.5900002   7969367.
 -22.3999996   7971013.
 -22.2099991   7972646.5
 -22.0200005   7974276.5
 -21.8299999   7975916.
 -21.6399994   7977566.5
 -21.4500008   7979214.
 -21.2600002   7980847.5
 -21.0699997   7982463.5
 -20.8799992   7984073.
 -20.6900005   7985697.5
 -20.5   7987338.
 -20.3099995   7988988.5
 -20.1200008   7990631.
 -19.9300003   7992255.
 -19.7399998   7993867.5
 -19.5499992   7995480.5
 -19.3600006   7997105.5
 -19.1700001   7998737.
 -18.9799995   8000362.5
 -18.7900009   8001972.5
 -18.6000004   8003576.5
 -18.4099998   8005188.
 -18.2199993   8006824.
 -18.0300007   8008476.
 -17.8400002   8010125.
 -17.6499996   8011755.5
 -17.4599991   8013374.
 -17.2700005   8014992.5
 -17.0799999   8016628.
 -16.8899994   8018276.5
 -16.7000008   8019925.
 -16.5100002   8021560.5
 -16.3199997   8023185.
 -16.1299992   8024813.
 -15.9399996   8026456.
 -15.75   8028112.5
 -15.5600004   8029767.
 -15.3699999   8031403.
 -15.1800003   8033025.5
 -14.9899998   8034648.5
 -14.8000002   8036286.
 -14.6099997   8037938.
 -14.4200001   8039589.5
 -14.2299995   8041221.
 -14.04   8042830.5
 -13.8500004   8044434.5
 -13.6599998   8046049.
 -13.4700003   8047682.5
 -13.2799997   8049318.5
 -13.0900002   8050945.5
 -12.8999996   8052555.
 -12.71   8054162.
 -12.5200005   8055775.
 -12.3299999   8057396.5
 -12.1400003   8059015.
 -11.9499998   8060617.5
 -11.7600002   8062204.5
 -11.5699997   8063790.
 -11.3800001   8065390.
 -11.1899996   8067017.
 -11.   8068652.
 -10.8100004   8070282.
 -10.6199999   8071895.5
 -10.4300003   8073500.5
 -10.2399998   8075113.5
 -10.0500002   8076740.5
 -9.85999966   8078373.5
 -9.67000008   8080000.
 -9.47999954   8081614.
 -9.28999996   8083222.
 -9.10000038   8084838.
 -8.90999985   8086468.5
 -8.72000027   8088104.
 -8.52999973   8089731.5
 -8.34000015   8091342.5
 -8.14999962   8092940.
 -7.96000004   8094545.
 -7.76999998   8096165.
 -7.57999992   8097795.5
 -7.38999987   8099425.5
 -7.19999981   8101045.5
 -7.01000023   8102661.
 -6.82000017   8104281.
 -6.63000011   8105915.
 -6.44000006   8107557.
 -6.25   8109192.5
 -6.05999994   8110816.
 -5.86999989   8112426.5
 -5.67999983   8114038.
 -5.48999977   8115657.
 -5.30000019   8117282.5
 -5.11000013   8118909.
 -4.92000008   8120527.
 -4.73000002   8122140.
 -4.53999996   8123757.
 -4.3499999   8125383.
 -4.15999985   8127016.5
 -3.97000003   8128652.5
 -3.77999997   8130288.
 -3.58999991   8131916.
 -3.4000001   8133543.
 -3.21000004   8135175.
 -3.01999998   8136811.5
 -2.82999992   8138453.5
 -2.6400001   8140091.
 -2.45000005   8141725.
 -2.25999999   8143351.5
 -2.06999993   8144975.5
 -1.88   8146599.
 -1.69000006   8148221.5
 -1.5   8149843.
 -1.30999994   8151462.
 -1.12   8153083.5
 -0.930000007   8154705.
 -0.74000001   8156332.
 -0.550000012   8157966.5
 -0.360000014   8159604.
 -0.170000002   8161239.5
 1.999999955E-2   8162866.5
 0.209999993   8164489.5
 0.400000006   8166112.
 0.589999974   8167744.5
 0.779999971   8169387.5
 0.970000029   8171033.
 1.15999997   8172678.5
 1.35000002   8174317.5
 1.53999996   8175953.
 1.73000002   8177593.5
 1.91999996   8179238.5
 2.1099999   8180884.5
 2.29999995   8182525.
 2.49000001   8184157.
 2.68000007   8185784.
 2.86999989   8187421.5
 3.05999994   8189065.
 3.25   8190714.5
 3.44000006   8192361.
 3.63000011   8193997.5
 3.81999993   8195629.
 4.01000023   8197262.5
 4.19999981   8198908.5
 4.38999987   8200558.
 4.57999992   8202204.
 4.76999998   8203836.
 4.96000004   8205457.
 5.1500001   8207076.
 5.34000015   8208704.5
 5.53000021   8210341.
 5.71999979   8211977.
 5.90999985   8213604.5
 6.0999999   8215223.
 6.28999996   8216836.
 6.48000002   8218460.
 6.67000008   8220096.
 6.86000013   8221733.5
 7.05000019   8223360.
 7.23999977   8224975.5
 7.42999983   8226589.5
 7.61999989   8228213.
 7.80999994   8229852.
 8.   8231498.
 8.18999958   8233137.
 8.38000011   8234759.
 8.56999969   8236372.5
 8.76000023   8237995.5
 8.94999981   8239636.
 9.14000034   8241288.5
 9.32999992   8242930.5
 9.52000046   8244553.5
 9.71000004   8246169.
 9.89999962   8247795.
 10.0900002   8249442.
 10.2799997   8251104.5
 10.4700003   8252760.5
 10.6599998   8254395.5
 10.8500004   8256015.5
 11.04   8257641.
 11.2299995   8259290.5
 11.4200001   8260954.5
 11.6099997   8262617.5
 11.8000002   8264260.5
 11.9899998   8265880.5
 12.1800003   8267502.
 12.3699999   8269142.5
 12.5600004   8270802.5
 12.75   8272461.5
 12.9399996   8274099.
 13.1300001   8275713.5
 13.3199997   8277326.5
 13.5100002   8278955.5
 13.6999998   8280608.5
 13.8900003   8282258.
 14.0799999   8283887.
 14.2700005   8285492.5
 14.46   8287091.5
 14.6499996   8288716.
 14.8400002   8290370.
 15.0299997   8292034.5
 15.2200003   8293685.
 15.4099998   8295307.5
 15.6000004   8296917.5
 15.79   8298539.
 15.9799995   8300187.
 16.1700001   8301844.
 16.3600006   8303484.
 16.5499992   8305098.
 16.7399998   8306703.5
 16.9300003   8308323.5
 17.1200008   8309972.
 17.3099995   8311634.
 17.5   8313283.
 17.6900005   8314903.
 17.8799992   8316509.
 18.0699997   8318126.
 18.2600002   8319770.5
 18.4500008   8321429.
 18.6399994   8323079.5
 18.8299999   8324705.5
 19.0200005   8326314.
 19.2099991   8327933.
 19.3999996   8329575.
 19.5900002   8331234.
 19.7800007   8332881.
 19.9699993   8334502.
 20.1599998   8336106.5
 20.3500004   8337715.5
 20.5400009   8339351.5
 20.7299995   8341005.5
 20.9200001   8342659.
 21.1100006   8344287.
 21.2999992   8345895.
 21.4899998   8347506.5
 21.6800003   8349141.5
 21.8700008   8350799.
 22.0599995   8352454.
 22.25   8354087.5
 22.4400005   8355695.5
 22.6299992   8357303.
 22.8199997   8358931.5
 23.0100002   8360585.5
 23.2000008   8362245.
 23.3899994   8363887.
 23.5799999   8365506.5
 23.7700005   8367118.
 23.9599991   8368751.
 24.1499996   8370412.5
 24.3400002   8372079.
 24.5300007   8373727.
 24.7199993   8375344.5
 24.9099998   8376952.5
 25.1000004   8378574.5
 25.2900009   8380221.5
 25.4799995   8381879.
 25.6700001   8383526.5
 25.8600006   8385151.
 26.0499992   8386760.5
 26.2399998   8388383.5
 26.4300003   8390027.
 26.6200008   8391684.
 26.8099995   8393330.
