 -30.   825324.375
 -29.8099995   825478.813
 -29.6200008   825625.625
 -29.4300003   825769.125
 -29.2399998   825915.438
 -29.0499992   826066.375
 -28.8600006   826220.938
 -28.6700001   826374.063
 -28.4799995   826522.25
 -28.2900009   826667.25
 -28.1000004   826814.313
 -27.9099998   826961.063
 -27.7199993   827113.75
 -27.5300007   827272.063
 -27.3400002   827430.813
 -27.1499996   827591.438
 -26.9599991   827748.625
 -26.7700005   827905.875
 -26.5799999   828067.813
 -26.3899994   828237.875
 -26.2000008   828420.25
 -26.0100002   828611.625
 -25.8199997   828809.063
 -25.6299992   829004.625
 -25.4400005   829196.125
 -25.25   829377.813
 -25.0599995   829554.125
 -24.8700008   829727.375
 -24.6800003   829899.125
 -24.4899998   830074.75
 -24.2999992   830251.25
 -24.1100006   830423.563
 -23.9200001   830595.375
 -23.7299995   830762.063
 -23.5400009   830926.063
 -23.3500004   831090.
 -23.1599998   831257.25
 -22.9699993   831427.
 -22.7800007   831596.5
 -22.5900002   831764.125
 -22.3999996   831927.5
 -22.2099991   832085.375
 -22.0200005   832239.
 -21.8299999   832394.5
 -21.6399994   832553.25
 -21.4500008   832715.063
 -21.2600002   832881.813
 -21.0699997   833051.563
 -20.8799992   833223.938
 -20.6900005   833399.563
 -20.5   833576.75
 -20.3099995   833758.063
 -20.1200008   833942.125
 -19.9300003   834128.75
 -19.7399998   834317.25
 -19.5499992   834501.
 -19.3600006   834678.813
 -19.1700001   834850.875
 -18.9799995   835017.375
 -18.7900009   835180.25
 -18.6000004   835339.313
 -18.4099998   835496.813
 -18.2199993   835653.125
 -18.0300007   835805.125
 -17.8400002   835954.188
 -17.6499996   836099.438
 -17.4599991   836244.438
 -17.2700005   836390.25
 -17.0799999   836541.75
 -16.8899994   836695.813
 -16.7000008   836851.625
 -16.5100002   837011.563
 -16.3199997   837171.438
 -16.1299992   837334.438
 -15.9399996   837496.438
 -15.75   837657.875
 -15.5600004   837817.75
 -15.3699999   837978.875
 -15.1800003   838140.063
 -14.9899998   838301.938
 -14.8000002   838466.188
 -14.6099997   838635.
 -14.4200001   838811.813
 -14.2299995   838995.938
 -14.04   839188.063
 -13.8500004   839387.875
 -13.6599998   839590.125
 -13.4700003   839795.563
 -13.2799997   839997.875
 -13.0900002   840196.563
 -12.8999996   840391.188
 -12.71   840582.938
 -12.5200005   840774.063
 -12.3299999   840963.938
 -12.1400003   841152.563
 -11.9499998   841341.375
 -11.7600002   841527.375
 -11.5699997   841713.063
 -11.3800001   841898.75
 -11.1899996   842086.063
 -11.   842278.375
 -10.8100004   842477.5
 -10.6199999   842684.313
 -10.4300003   842898.063
 -10.2399998   843116.313
 -10.0500002   843341.125
 -9.85999966   843564.938
 -9.67000008   843790.313
 -9.47999954   844014.125
 -9.28999996   844233.5
 -9.10000038   844449.688
 -8.90999985   844658.625
 -8.72000027   844863.188
 -8.52999973   845058.75
 -8.34000015   845244.563
 -8.14999962   845420.5
 -7.96000004   845585.875
 -7.76999998   845741.938
 -7.57999992   845894.313
 -7.38999987   846043.625
 -7.19999981   846197.5
 -7.01000023   846354.938
 -6.82000017   846514.063
 -6.63000011   846672.5
 -6.44000006   846826.938
 -6.25   846978.
 -6.05999994   847124.438
 -5.86999989   847267.938
 -5.67999983   847409.938
 -5.48999977   847551.
 -5.30000019   847690.875
 -5.11000013   847830.313
 -4.92000008   847963.875
 -4.73000002   848091.875
 -4.53999996   848215.438
 -4.3499999   848335.625
 -4.15999985   848451.063
 -3.97000003   848563.188
 -3.77999997   848674.75
 -3.58999991   848785.438
 -3.4000001   848898.5
 -3.21000004   849012.813
 -3.01999998   849133.875
 -2.82999992   849263.563
 -2.6400001   849398.188
 -2.45000005   849537.25
 -2.25999999   849677.063
 -2.06999993   849817.813
 -1.88   849958.5
 -1.69000006   850102.75
 -1.5   850255.5
 -1.30999994   850416.063
 -1.12   850582.
 -0.930000007   850754.313
 -0.74000001   850927.188
 -0.550000012   851100.375
 -0.360000014   851279.313
 -0.170000002   851465.75
 1.999999955E-2   851664.813
 0.209999993   851878.625
 0.400000006   852101.813
 0.589999974   852325.563
 0.779999971   852546.5
 0.970000029   852758.375
 1.15999997   852967.
 1.35000002   853175.
 1.53999996   853387.813
 1.73000002   853608.063
 1.91999996   853831.938
 2.1099999   854054.813
 2.29999995   854269.688
 2.49000001   854474.063
 2.68000007   854673.625
 2.86999989   854875.
 3.05999994   855082.125
 3.25   855297.375
 3.44000006   855518.25
 3.63000011   855733.375
 3.81999993   855936.938
 4.01000023   856125.375
 4.19999981   856302.938
 4.38999987   856475.625
 4.57999992   856649.125
 4.76999998   856826.188
 4.96000004   857002.563
 5.1500001   857170.813
 5.34000015   857325.375
 5.53000021   857469.563
 5.71999979   857606.063
 5.90999985   857745.938
 6.0999999   857893.813
 6.28999996   858052.
 6.48000002   858213.75
 6.67000008   858375.813
 6.86000013   858530.375
 7.05000019   858680.875
 7.23999977   858831.438
 7.42999983   858991.75
 7.61999989   859164.25
 7.80999994   859345.563
 8.   859527.
 8.18999958   859700.75
 8.38000011   859857.188
 8.56999969   860003.313
 8.76000023   860142.875
 8.94999981   860283.25
 9.14000034   860434.688
 9.32999992   860596.813
 9.52000046   860763.563
 9.71000004   860931.563
 9.89999962   861094.125
 10.0900002   861253.125
 10.2799997   861409.125
 10.4700003   861571.5
 10.6599998   861745.625
 10.8500004   861930.188
 11.04   862122.625
 11.2299995   862315.063
 11.4200001   862499.813
 11.6099997   862674.
 11.8000002   862842.438
 11.9899998   863012.
 12.1800003   863184.313
 12.3699999   863366.875
 12.5600004   863554.
 12.75   863742.438
 12.9399996   863925.625
 13.1300001   864101.438
 13.3199997   864273.375
 13.5100002   864446.063
 13.6999998   864622.438
 13.8900003   864807.188
 14.0799999   864997.
 14.2700005   865186.375
 14.46   865370.188
 14.6499996   865546.375
 14.8400002   865717.813
 15.0299997   865890.25
 15.2200003   866068.25
 15.4099998   866254.875
 15.6000004   866446.063
 15.79   866636.875
 15.9799995   866821.75
 16.1700001   866995.5
 16.3600006   867160.25
 16.5499992   867327.25
 16.7399998   867500.688
 16.9300003   867688.875
 17.1200008   867887.
 17.3099995   868089.875
 17.5   868287.75
 17.6900005   868476.
 17.8799992   868650.375
 18.0699997   868816.125
 18.2600002   868980.375
 18.4500008   869151.438
 18.6399994   869331.563
 18.8299999   869516.125
 19.0200005   869699.5
 19.2099991   869875.25
 19.3999996   870038.313
 19.5900002   870190.5
 19.7800007   870343.563
 19.9699993   870500.75
 20.1599998   870664.625
 20.3500004   870837.313
 20.5400009   871013.25
 20.7299995   871185.125
 20.9200001   871352.5
 21.1100006   871517.063
 21.2999992   871685.625
 21.4899998   871861.5
 21.6800003   872042.625
 21.8700008   872226.688
 22.0599995   872410.125
 22.25   872586.5
 22.4400005   872757.375
 22.6299992   872926.063
 22.8199997   873094.688
 23.0100002   873269.063
 23.2000008   873448.438
 23.3899994   873627.375
 23.5799999   873803.063
 23.7700005   873969.5
 23.9599991   874130.5
 24.1499996   874290.75
 24.3400002   874455.688
 24.5300007   874629.
 24.7199993   874810.938
 24.9099998   875000.25
 25.1000004   875187.313
 25.2900009   875371.5
 25.4799995   875549.625
 25.6700001   875726.875
 25.8600006   875906.75
 26.0499992   876091.625
 26.2399998   876281.
 26.4300003   876476.688
 26.6200008   876668.125
 26.8099995   876857.625
