 -30.   8484536.
 -29.8099995   8486270.
 -29.6200008   8488002.
 -29.4300003   8489736.
 -29.2399998   8491469.
 -29.0499992   8493202.
 -28.8600006   8494934.
 -28.6700001   8496666.
 -28.4799995   8498400.
 -28.2900009   8500131.
 -28.1000004   8501861.
 -27.9099998   8503591.
 -27.7199993   8505318.
 -27.5300007   8507041.
 -27.3400002   8508766.
 -27.1499996   8510492.
 -26.9599991   8512222.
 -26.7700005   8513956.
 -26.5799999   8515693.
 -26.3899994   8517432.
 -26.2000008   8519166.
 -26.0100002   8520893.
 -25.8199997   8522611.
 -25.6299992   8524322.
 -25.4400005   8526029.
 -25.25   8527739.
 -25.0599995   8529456.
 -24.8700008   8531185.
 -24.6800003   8532922.
 -24.4899998   8534663.
 -24.2999992   8536398.
 -24.1100006   8538126.
 -23.9200001   8539841.
 -23.7299995   8541548.
 -23.5400009   8543254.
 -23.3500004   8544964.
 -23.1599998   8546683.
 -22.9699993   8548412.
 -22.7800007   8550156.
 -22.5900002   8551908.
 -22.3999996   8553667.
 -22.2099991   8555431.
 -22.0200005   8557191.
 -21.8299999   8558946.
 -21.6399994   8560691.
 -21.4500008   8562423.
 -21.2600002   8564142.
 -21.0699997   8565853.
 -20.8799992   8567564.
 -20.6900005   8569279.
 -20.5   8571005.
 -20.3099995   8572742.
 -20.1200008   8574485.
 -19.9300003   8576226.
 -19.7399998   8577956.
 -19.5499992   8579670.
 -19.3600006   8581368.
 -19.1700001   8583057.
 -18.9799995   8584739.
 -18.7900009   8586424.
 -18.6000004   8588116.
 -18.4099998   8589814.
 -18.2199993   8591520.
 -18.0300007   8593230.
 -17.8400002   8594943.
 -17.6499996   8596660.
 -17.4599991   8598377.
 -17.2700005   8600097.
 -17.0799999   8601818.
 -16.8899994   8603538.
 -16.7000008   8605257.
 -16.5100002   8606973.
 -16.3199997   8608688.
 -16.1299992   8610404.
 -15.9399996   8612122.
 -15.75   8613846.
 -15.5600004   8615576.
 -15.3699999   8617310.
 -15.1800003   8619044.
 -14.9899998   8620775.
 -14.8000002   8622494.
 -14.6099997   8624204.
 -14.4200001   8625904.
 -14.2299995   8627599.
 -14.04   8629295.
 -13.8500004   8630991.
 -13.6599998   8632689.
 -13.4700003   8634387.
 -13.2799997   8636083.
 -13.0900002   8637773.
 -12.8999996   8639455.
 -12.71   8641127.
 -12.5200005   8642792.
 -12.3299999   8644452.
 -12.1400003   8646113.
 -11.9499998   8647778.
 -11.7600002   8649451.
 -11.5699997   8651132.
 -11.3800001   8652821.
 -11.1899996   8654510.
 -11.   8656202.
 -10.8100004   8657896.
 -10.6199999   8659589.
 -10.4300003   8661285.
 -10.2399998   8662982.
 -10.0500002   8664680.
 -9.85999966   8666379.
 -9.67000008   8668080.
 -9.47999954   8669781.
 -9.28999996   8671484.
 -9.10000038   8673189.
 -8.90999985   8674892.
 -8.72000027   8676597.
 -8.52999973   8678300.
 -8.34000015   8680000.
 -8.14999962   8681696.
 -7.96000004   8683388.
 -7.76999998   8685085.
 -7.57999992   8686784.
 -7.38999987   8688492.
 -7.19999981   8690207.
 -7.01000023   8691925.
 -6.82000017   8693642.
 -6.63000011   8695353.
 -6.44000006   8697056.
 -6.25   8698750.
 -6.05999994   8700437.
 -5.86999989   8702123.
 -5.67999983   8703812.
 -5.48999977   8705505.
 -5.30000019   8707197.
 -5.11000013   8708887.
 -4.92000008   8710574.
 -4.73000002   8712255.
 -4.53999996   8713928.
 -4.3499999   8715595.
 -4.15999985   8717256.
 -3.97000003   8718910.
 -3.77999997   8720557.
 -3.58999991   8722200.
 -3.4000001   8723844.
 -3.21000004   8725491.
 -3.01999998   8727148.
 -2.82999992   8728813.
 -2.6400001   8730484.
 -2.45000005   8732151.
 -2.25999999   8733807.
 -2.06999993   8735449.
 -1.88   8737072.
 -1.69000006   8738688.
 -1.5   8740305.
 -1.30999994   8741931.
 -1.12   8743574.
 -0.930000007   8745229.
 -0.74000001   8746893.
 -0.550000012   8748557.
 -0.360000014   8750215.
 -0.170000002   8751863.
 1.999999955E-2   8753504.
 0.209999993   8755139.
 0.400000006   8756776.
 0.589999974   8758415.
 0.779999971   8760062.
 0.970000029   8761712.
 1.15999997   8763370.
 1.35000002   8765028.
 1.53999996   8766685.
 1.73000002   8768340.
 1.91999996   8769990.
 2.1099999   8771634.
 2.29999995   8773276.
 2.49000001   8774917.
 2.68000007   8776559.
 2.86999989   8778207.
 3.05999994   8779859.
 3.25   8781514.
 3.44000006   8783170.
 3.63000011   8784824.
 3.81999993   8786473.
 4.01000023   8788125.
 4.19999981   8789774.
 4.38999987   8791429.
 4.57999992   8793087.
 4.76999998   8794744.
 4.96000004   8796399.
 5.1500001   8798051.
 5.34000015   8799699.
 5.53000021   8801345.
 5.71999979   8802989.
 5.90999985   8804637.
 6.0999999   8806280.
 6.28999996   8807918.
 6.48000002   8809544.
 6.67000008   8811161.
 6.86000013   8812770.
 7.05000019   8814384.
 7.23999977   8816008.
 7.42999983   8817643.
 7.61999989   8819287.
 7.80999994   8820934.
 8.   8822570.
 8.18999958   8824191.
 8.38000011   8825804.
 8.56999969   8827413.
 8.76000023   8829028.
 8.94999981   8830665.
 9.14000034   8832319.
 9.32999992   8833987.
 9.52000046   8835661.
 9.71000004   8837331.
 9.89999962   8838989.
 10.0900002   8840634.
 10.2799997   8842272.
 10.4700003   8843910.
 10.6599998   8845548.
 10.8500004   8847195.
 11.04   8848847.
 11.2299995   8850497.
 11.4200001   8852142.
 11.6099997   8853779.
 11.8000002   8855407.
 11.9899998   8857031.
 12.1800003   8858653.
 12.3699999   8860276.
 12.5600004   8861897.
 12.75   8863512.
 12.9399996   8865121.
 13.1300001   8866724.
 13.3199997   8868322.
 13.5100002   8869918.
 13.6999998   8871520.
 13.8900003   8873131.
 14.0799999   8874745.
 14.2700005   8876361.
 14.46   8877975.
 14.6499996   8879584.
 14.8400002   8881183.
 15.0299997   8882782.
 15.2200003   8884379.
 15.4099998   8885982.
 15.6000004   8887587.
 15.79   8889195.
 15.9799995   8890805.
 16.1700001   8892410.
 16.3600006   8894016.
 16.5499992   8895627.
 16.7399998   8897246.
 16.9300003   8898871.
 17.1200008   8900502.
 17.3099995   8902128.
 17.5   8903748.
 17.6900005   8905359.
 17.8799992   8906965.
 18.0699997   8908572.
 18.2600002   8910184.
 18.4500008   8911801.
 18.6399994   8913423.
 18.8299999   8915042.
 19.0200005   8916655.
 19.2099991   8918259.
 19.3999996   8919859.
 19.5900002   8921456.
 19.7800007   8923058.
 19.9699993   8924668.
 20.1599998   8926281.
 20.3500004   8927893.
 20.5400009   8929502.
 20.7299995   8931103.
 20.9200001   8932702.
 21.1100006   8934305.
 21.2999992   8935913.
 21.4899998   8937525.
 21.6800003   8939137.
 21.8700008   8940740.
 22.0599995   8942332.
 22.25   8943915.
 22.4400005   8945493.
 22.6299992   8947075.
 22.8199997   8948666.
 23.0100002   8950263.
 23.2000008   8951864.
 23.3899994   8953465.
 23.5799999   8955059.
 23.7700005   8956646.
 23.9599991   8958225.
 24.1499996   8959802.
 24.3400002   8961379.
 24.5300007   8962959.
 24.7199993   8964544.
 24.9099998   8966132.
 25.1000004   8967720.
 25.2900009   8969309.
 25.4799995   8970902.
 25.6700001   8972499.
 25.8600006   8974095.
 26.0499992   8975688.
 26.2399998   8977275.
 26.4300003   8978858.
 26.6200008   8980435.
 26.8099995   8982011.
