 -30.   7010719.
 -29.8099995   7012153.5
 -29.6200008   7013590.5
 -29.4300003   7015028.
 -29.2399998   7016463.5
 -29.0499992   7017899.
 -28.8600006   7019332.
 -28.6700001   7020762.
 -28.4799995   7022194.
 -28.2900009   7023624.5
 -28.1000004   7025057.
 -27.9099998   7026488.5
 -27.7199993   7027921.
 -27.5300007   7029352.
 -27.3400002   7030782.
 -27.1499996   7032210.5
 -26.9599991   7033641.
 -26.7700005   7035073.
 -26.5799999   7036507.
 -26.3899994   7037946.5
 -26.2000008   7039387.
 -26.0100002   7040828.5
 -25.8199997   7042268.5
 -25.6299992   7043701.
 -25.4400005   7045129.5
 -25.25   7046551.
 -25.0599995   7047971.5
 -24.8700008   7049391.
 -24.6800003   7050817.
 -24.4899998   7052249.
 -24.2999992   7053686.
 -24.1100006   7055124.5
 -23.9200001   7056557.5
 -23.7299995   7057984.5
 -23.5400009   7059398.5
 -23.3500004   7060802.
 -23.1599998   7062199.5
 -22.9699993   7063594.
 -22.7800007   7064995.5
 -22.5900002   7066405.5
 -22.3999996   7067827.5
 -22.2099991   7069262.
 -22.0200005   7070703.
 -21.8299999   7072142.5
 -21.6399994   7073576.5
 -21.4500008   7075004.5
 -21.2600002   7076421.5
 -21.0699997   7077836.5
 -20.8799992   7079252.5
 -20.6900005   7080677.
 -20.5   7082111.5
 -20.3099995   7083551.5
 -20.1200008   7084990.
 -19.9300003   7086416.5
 -19.7399998   7087824.
 -19.5499992   7089210.
 -19.3600006   7090583.5
 -19.1700001   7091951.
 -18.9799995   7093322.5
 -18.7900009   7094707.5
 -18.6000004   7096108.
 -18.4099998   7097522.5
 -18.2199993   7098942.
 -18.0300007   7100360.
 -17.8400002   7101774.5
 -17.6499996   7103186.
 -17.4599991   7104593.
 -17.2700005   7106006.
 -17.0799999   7107425.5
 -16.8899994   7108855.5
 -16.7000008   7110297.
 -16.5100002   7111743.
 -16.3199997   7113192.
 -16.1299992   7114636.
 -15.9399996   7116072.5
 -15.75   7117504.5
 -15.5600004   7118926.
 -15.3699999   7120342.
 -15.1800003   7121751.5
 -14.9899998   7123155.
 -14.8000002   7124554.
 -14.6099997   7125945.
 -14.4200001   7127333.5
 -14.2299995   7128721.
 -14.04   7130111.
 -13.8500004   7131506.
 -13.6599998   7132908.
 -13.4700003   7134314.
 -13.2799997   7135726.5
 -13.0900002   7137143.
 -12.8999996   7138555.
 -12.71   7139964.5
 -12.5200005   7141370.5
 -12.3299999   7142768.
 -12.1400003   7144163.5
 -11.9499998   7145556.5
 -11.7600002   7146952.
 -11.5699997   7148351.5
 -11.3800001   7149756.5
 -11.1899996   7151164.
 -11.   7152574.
 -10.8100004   7153981.
 -10.6199999   7155385.
 -10.4300003   7156785.
 -10.2399998   7158180.
 -10.0500002   7159575.
 -9.85999966   7160970.5
 -9.67000008   7162366.
 -9.47999954   7163759.
 -9.28999996   7165146.
 -9.10000038   7166528.
 -8.90999985   7167903.5
 -8.72000027   7169274.5
 -8.52999973   7170645.5
 -8.34000015   7172021.5
 -8.14999962   7173404.
 -7.96000004   7174790.
 -7.76999998   7176179.
 -7.57999992   7177569.5
 -7.38999987   7178959.5
 -7.19999981   7180347.5
 -7.01000023   7181737.
 -6.82000017   7183126.5
 -6.63000011   7184518.
 -6.44000006   7185914.5
 -6.25   7187313.
 -6.05999994   7188712.5
 -5.86999989   7190113.
 -5.67999983   7191508.5
 -5.48999977   7192899.5
 -5.30000019   7194282.5
 -5.11000013   7195659.
 -4.92000008   7197026.5
 -4.73000002   7198389.
 -4.53999996   7199751.5
 -4.3499999   7201116.5
 -4.15999985   7202484.5
 -3.97000003   7203857.5
 -3.77999997   7205233.
 -3.58999991   7206610.
 -3.4000001   7207984.
 -3.21000004   7209355.5
 -3.01999998   7210723.
 -2.82999992   7212089.5
 -2.6400001   7213460.5
 -2.45000005   7214836.
 -2.25999999   7216213.
 -2.06999993   7217592.5
 -1.88   7218972.
 -1.69000006   7220349.
 -1.5   7221725.
 -1.30999994   7223097.5
 -1.12   7224467.5
 -0.930000007   7225837.5
 -0.74000001   7227207.
 -0.550000012   7228574.
 -0.360000014   7229945.
 -0.170000002   7231317.5
 1.999999955E-2   7232692.
 0.209999993   7234067.5
 0.400000006   7235445.
 0.589999974   7236816.
 0.779999971   7238184.
 0.970000029   7239548.
 1.15999997   7240909.
 1.35000002   7242270.
 1.53999996   7243631.5
 1.73000002   7244993.5
 1.91999996   7246355.
 2.1099999   7247711.5
 2.29999995   7249062.5
 2.49000001   7250406.
 2.68000007   7251748.
 2.86999989   7253092.5
 3.05999994   7254438.5
 3.25   7255793.
 3.44000006   7257155.
 3.63000011   7258522.
 3.81999993   7259890.
 4.01000023   7261256.
 4.19999981   7262617.
 4.38999987   7263976.5
 4.57999992   7265333.
 4.76999998   7266688.5
 4.96000004   7268044.5
 5.1500001   7269402.5
 5.34000015   7270758.
 5.53000021   7272110.5
 5.71999979   7273460.5
 5.90999985   7274804.
 6.0999999   7276143.
 6.28999996   7277478.5
 6.48000002   7278810.
 6.67000008   7280138.5
 6.86000013   7281464.5
 7.05000019   7282790.5
 7.23999977   7284118.
 7.42999983   7285446.5
 7.61999989   7286777.
 7.80999994   7288110.5
 8.   7289446.5
 8.18999958   7290787.
 8.38000011   7292129.
 8.56999969   7293475.
 8.76000023   7294822.
 8.94999981   7296164.
 9.14000034   7297504.5
 9.32999992   7298843.5
 9.52000046   7300182.
 9.71000004   7301524.
 9.89999962   7302869.5
 10.0900002   7304225.5
 10.2799997   7305585.5
 10.4700003   7306948.
 10.6599998   7308307.5
 10.8500004   7309660.
 11.04   7311005.5
 11.2299995   7312342.
 11.4200001   7313679.5
 11.6099997   7315015.5
 11.8000002   7316356.5
 11.9899998   7317704.
 12.1800003   7319053.5
 12.3699999   7320404.5
 12.5600004   7321750.5
 12.75   7323091.5
 12.9399996   7324422.5
 13.1300001   7325747.5
 13.3199997   7327070.5
 13.5100002   7328390.5
 13.6999998   7329716.
 13.8900003   7331047.5
 14.0799999   7332383.
 14.2700005   7333722.
 14.46   7335057.5
 14.6499996   7336386.5
 14.8400002   7337706.5
 15.0299997   7339019.
 15.2200003   7340329.5
 15.4099998   7341644.5
 15.6000004   7342966.5
 15.79   7344301.5
 15.9799995   7345643.5
 16.1700001   7346987.5
 16.3600006   7348327.
 16.5499992   7349657.
 16.7399998   7350978.5
 16.9300003   7352294.
 17.1200008   7353607.
 17.3099995   7354926.
 17.5   7356250.
 17.6900005   7357580.5
 17.8799992   7358916.5
 18.0699997   7360252.5
 18.2600002   7361584.5
 18.4500008   7362916.
 18.6399994   7364239.5
 18.8299999   7365557.5
 19.0200005   7366872.
 19.2099991   7368184.5
 19.3999996   7369496.
 19.5900002   7370810.5
 19.7800007   7372125.5
 19.9699993   7373443.
 20.1599998   7374760.
 20.3500004   7376069.5
 20.5400009   7377372.5
 20.7299995   7378669.
 20.9200001   7379961.
 21.1100006   7381255.
 21.2999992   7382555.5
 21.4899998   7383865.5
 21.6800003   7385184.5
 21.8700008   7386512.
 22.0599995   7387845.
 22.25   7389176.5
 22.4400005   7390504.
 22.6299992   7391825.5
 22.8199997   7393140.5
 23.0100002   7394449.5
 23.2000008   7395753.
 23.3899994   7397052.5
 23.5799999   7398351.
 23.7700005   7399650.
 23.9599991   7400948.5
 24.1499996   7402247.
 24.3400002   7403546.5
 24.5300007   7404844.5
 24.7199993   7406143.5
 24.9099998   7407437.5
 25.1000004   7408731.
 25.2900009   7410023.
 25.4799995   7411317.5
 25.6700001   7412616.5
 25.8600006   7413918.
 26.0499992   7415225.
 26.2399998   7416531.5
 26.4300003   7417838.5
 26.6200008   7419143.5
 26.8099995   7420444.5
