 -30.   2243172.
 -29.8099995   2243694.5
 -29.6200008   2244234.25
 -29.4300003   2244735.75
 -29.2399998   2245191.25
 -29.0499992   2245642.5
 -28.8600006   2246142.
 -28.6700001   2246690.
 -28.4799995   2247251.5
 -28.2900009   2247768.
 -28.1000004   2248225.25
 -27.9099998   2248666.5
 -27.7199993   2249144.25
 -27.5300007   2249678.25
 -27.3400002   2250233.25
 -27.1499996   2250753.75
 -26.9599991   2251220.
 -26.7700005   2251660.5
 -26.5799999   2252127.
 -26.3899994   2252648.
 -26.2000008   2253198.25
 -26.0100002   2253722.5
 -25.8199997   2254194.5
 -25.6299992   2254644.5
 -25.4400005   2255120.5
 -25.25   2255651.5
 -25.0599995   2256216.25
 -24.8700008   2256762.
 -24.6800003   2257256.5
 -24.4899998   2257714.75
 -24.2999992   2258188.25
 -24.1100006   2258710.75
 -23.9200001   2259269.
 -23.7299995   2259813.
 -23.5400009   2260306.75
 -23.3500004   2260761.75
 -23.1599998   2261226.5
 -22.9699993   2261741.5
 -22.7800007   2262293.5
 -22.5900002   2262838.25
 -22.3999996   2263336.5
 -22.2099991   2263786.25
 -22.0200005   2264234.75
 -21.8299999   2264725.
 -21.6399994   2265255.25
 -21.4500008   2265784.
 -21.2600002   2266266.25
 -21.0699997   2266695.5
 -20.8799992   2267117.75
 -20.6900005   2267581.25
 -20.5   2268092.25
 -20.3099995   2268615.5
 -20.1200008   2269099.75
 -19.9300003   2269533.75
 -19.7399998   2269957.
 -19.5499992   2270415.
 -19.3600006   2270927.25
 -19.1700001   2271456.
 -18.9799995   2271951.
 -18.7900009   2272393.25
 -18.6000004   2272816.75
 -18.4099998   2273269.5
 -18.2199993   2273773.75
 -18.0300007   2274303.5
 -17.8400002   2274807.75
 -17.6499996   2275260.
 -17.4599991   2275683.5
 -17.2700005   2276128.
 -17.0799999   2276621.25
 -16.8899994   2277139.25
 -16.7000008   2277632.
 -16.5100002   2278071.25
 -16.3199997   2278474.75
 -16.1299992   2278893.25
 -15.9399996   2279363.75
 -15.75   2279871.25
 -15.5600004   2280366.
 -15.3699999   2280812.75
 -15.1800003   2281219.
 -14.9899998   2281632.5
 -14.8000002   2282096.75
 -14.6099997   2282595.75
 -14.4200001   2283086.75
 -14.2299995   2283527.25
 -14.04   2283927.
 -13.8500004   2284331.5
 -13.6599998   2284785.75
 -13.4700003   2285288.
 -13.2799997   2285789.
 -13.0900002   2286249.25
 -12.8999996   2286664.75
 -12.71   2287073.25
 -12.5200005   2287522.
 -12.3299999   2288013.25
 -12.1400003   2288510.
 -11.9499998   2288969.5
 -11.7600002   2289377.5
 -11.5699997   2289773.75
 -11.3800001   2290203.
 -11.1899996   2290677.5
 -11.   2291168.75
 -10.8100004   2291632.
 -10.6199999   2292054.
 -10.4300003   2292457.
 -10.2399998   2292890.25
 -10.0500002   2293370.5
 -9.85999966   2293870.5
 -9.67000008   2294343.75
 -9.47999954   2294768.5
 -9.28999996   2295166.5
 -9.10000038   2295583.25
 -8.90999985   2296043.75
 -8.72000027   2296530.75
 -8.52999973   2297004.
 -8.34000015   2297436.75
 -8.14999962   2297845.
 -7.96000004   2298269.
 -7.76999998   2298737.
 -7.57999992   2299236.
 -7.38999987   2299726.25
 -7.19999981   2300176.25
 -7.01000023   2300597.25
 -6.82000017   2301032.75
 -6.63000011   2301509.75
 -6.44000006   2302021.75
 -6.25   2302530.25
 -6.05999994   2302999.5
 -5.86999989   2303433.25
 -5.67999983   2303872.25
 -5.48999977   2304347.75
 -5.30000019   2304863.
 -5.11000013   2305383.25
 -4.92000008   2305871.5
 -4.73000002   2306326.5
 -4.53999996   2306781.25
 -4.3499999   2307272.25
 -4.15999985   2307808.
 -3.97000003   2308350.
 -3.77999997   2308863.5
 -3.58999991   2309334.
 -3.4000001   2309794.
 -3.21000004   2310283.75
 -3.01999998   2310818.
 -2.82999992   2311364.25
 -2.6400001   2311884.
 -2.45000005   2312362.
 -2.25999999   2312821.25
 -2.06999993   2313305.75
 -1.88   2313833.5
 -1.69000006   2314382.
 -1.5   2314913.25
 -1.30999994   2315404.25
 -1.12   2315873.
 -0.930000007   2316360.75
 -0.74000001   2316892.
 -0.550000012   2317445.5
 -0.360000014   2317987.25
 -0.170000002   2318489.25
 1.999999955E-2   2318964.25
 0.209999993   2319448.
 0.400000006   2319969.25
 0.589999974   2320515.
 0.779999971   2321054.75
 0.970000029   2321555.25
 1.15999997   2322026.75
 1.35000002   2322502.25
 1.53999996   2323011.75
 1.73000002   2323550.25
 1.91999996   2324088.
 2.1099999   2324592.5
 2.29999995   2325067.5
 2.49000001   2325545.25
 2.68000007   2326057.75
 2.86999989   2326605.75
 3.05999994   2327160.25
 3.25   2327685.25
 3.44000006   2328178.25
 3.63000011   2328661.75
 3.81999993   2329170.75
 4.01000023   2329712.
 4.19999981   2330258.
 4.38999987   2330778.
 4.57999992   2331261.
 4.76999998   2331732.
 4.96000004   2332225.25
 5.1500001   2332751.25
 5.34000015   2333289.5
 5.53000021   2333805.
 5.71999979   2334287.5
 5.90999985   2334753.75
 6.0999999   2335240.
 6.28999996   2335761.25
 6.48000002   2336299.5
 6.67000008   2336817.25
 6.86000013   2337294.75
 7.05000019   2337747.75
 7.23999977   2338207.5
 7.42999983   2338695.25
 7.61999989   2339203.
 7.80999994   2339694.75
 8.   2340151.
 8.18999958   2340584.25
 8.38000011   2341029.5
 8.56999969   2341508.75
 8.76000023   2342011.75
 8.94999981   2342509.75
 9.14000034   2342976.5
 9.32999992   2343420.25
 9.52000046   2343871.
 9.71000004   2344354.25
 9.89999962   2344870.
 10.0900002   2345389.75
 10.2799997   2345885.
 10.4700003   2346351.25
 10.6599998   2346811.5
 10.8500004   2347296.25
 11.04   2347806.
 11.2299995   2348318.5
 11.4200001   2348799.75
 11.6099997   2349244.5
 11.8000002   2349677.25
 11.9899998   2350128.5
 12.1800003   2350612.25
 12.3699999   2351113.5
 12.5600004   2351597.25
 12.75   2352057.25
 12.9399996   2352511.5
 13.1300001   2352991.5
 13.3199997   2353511.25
 13.5100002   2354054.25
 13.6999998   2354584.
 13.8900003   2355085.5
 14.0799999   2355565.
 14.2700005   2356055.75
 14.46   2356575.75
 14.6499996   2357119.
 14.8400002   2357653.5
 15.0299997   2358161.
 15.2200003   2358646.5
 15.4099998   2359134.5
 15.6000004   2359646.
 15.79   2360178.
 15.9799995   2360700.5
 16.1700001   2361190.
 16.3600006   2361653.25
 16.5499992   2362115.25
 16.7399998   2362603.
 16.9300003   2363117.5
 17.1200008   2363637.75
 17.3099995   2364142.
 17.5   2364627.
 17.6900005   2365110.25
 17.8799992   2365616.
 18.0699997   2366140.25
 18.2600002   2366674.25
 18.4500008   2367185.5
 18.6399994   2367672.75
 18.8299999   2368150.
 19.0200005   2368641.25
 19.2099991   2369152.25
 19.3999996   2369674.
 19.5900002   2370184.75
 19.7800007   2370672.25
 19.9699993   2371156.25
 20.1599998   2371655.
 20.3500004   2372174.
 20.5400009   2372699.25
 20.7299995   2373213.
 20.9200001   2373701.5
 21.1100006   2374173.5
 21.2999992   2374654.5
 21.4899998   2375153.25
 21.6800003   2375665.75
 21.8700008   2376171.5
 22.0599995   2376658.75
 22.25   2377136.25
 22.4400005   2377625.75
 22.6299992   2378136.75
 22.8199997   2378661.
 23.0100002   2379174.75
 23.2000008   2379660.
 23.3899994   2380123.
 23.5799999   2380584.5
 23.7700005   2381063.
 23.9599991   2381553.5
 24.1499996   2382038.
 24.3400002   2382499.25
 24.5300007   2382940.5
 24.7199993   2383383.
 24.9099998   2383845.75
 25.1000004   2384332.75
 25.2900009   2384819.75
 25.4799995   2385286.5
 25.6700001   2385731.25
 25.8600006   2386172.25
 26.0499992   2386627.75
 26.2399998   2387106.75
 26.4300003   2387595.
 26.6200008   2388063.75
 26.8099995   2388508.
