 -30.   -8890248.
 -29.8099995   -8892057.
 -29.6200008   -8893854.
 -29.4300003   -8895652.
 -29.2399998   -8897452.
 -29.0499992   -8899253.
 -28.8600006   -8901060.
 -28.6700001   -8902870.
 -28.4799995   -8904683.
 -28.2900009   -8906495.
 -28.1000004   -8908305.
 -27.9099998   -8910108.
 -27.7199993   -8911906.
 -27.5300007   -8913698.
 -27.3400002   -8915489.
 -27.1499996   -8917284.
 -26.9599991   -8919082.
 -26.7700005   -8920890.
 -26.5799999   -8922701.
 -26.3899994   -8924515.
 -26.2000008   -8926329.
 -26.0100002   -8928137.
 -25.8199997   -8929938.
 -25.6299992   -8931734.
 -25.4400005   -8933521.
 -25.25   -8935309.
 -25.0599995   -8937099.
 -24.8700008   -8938895.
 -24.6800003   -8940703.
 -24.4899998   -8942518.
 -24.2999992   -8944331.
 -24.1100006   -8946139.
 -23.9200001   -8947934.
 -23.7299995   -8949715.
 -23.5400009   -8951487.
 -23.3500004   -8953251.
 -23.1599998   -8955018.
 -22.9699993   -8956794.
 -22.7800007   -8958582.
 -22.5900002   -8960381.
 -22.3999996   -8962189.
 -22.2099991   -8964000.
 -22.0200005   -8965806.
 -21.8299999   -8967603.
 -21.6399994   -8969387.
 -21.4500008   -8971163.
 -21.2600002   -8972933.
 -21.0699997   -8974702.
 -20.8799992   -8976474.
 -20.6900005   -8978251.
 -20.5   -8980032.
 -20.3099995   -8981817.
 -20.1200008   -8983602.
 -19.9300003   -8985385.
 -19.7399998   -8987165.
 -19.5499992   -8988938.
 -19.3600006   -8990704.
 -19.1700001   -8992473.
 -18.9799995   -8994245.
 -18.7900009   -8996023.
 -18.6000004   -8997810.
 -18.4099998   -8999608.
 -18.2199993   -9001411.
 -18.0300007   -9003219.
 -17.8400002   -9005030.
 -17.6499996   -9006839.
 -17.4599991   -9008644.
 -17.2700005   -9010443.
 -17.0799999   -9012233.
 -16.8899994   -9014017.
 -16.7000008   -9015796.
 -16.5100002   -9017576.
 -16.3199997   -9019356.
 -16.1299992   -9021139.
 -15.9399996   -9022924.
 -15.75   -9024711.
 -15.5600004   -9026500.
 -15.3699999   -9028285.
 -15.1800003   -9030064.
 -14.9899998   -9031834.
 -14.8000002   -9033594.
 -14.6099997   -9035347.
 -14.4200001   -9037101.
 -14.2299995   -9038856.
 -14.04   -9040616.
 -13.8500004   -9042382.
 -13.6599998   -9044155.
 -13.4700003   -9045930.
 -13.2799997   -9047708.
 -13.0900002   -9049486.
 -12.8999996   -9051259.
 -12.71   -9053030.
 -12.5200005   -9054797.
 -12.3299999   -9056557.
 -12.1400003   -9058313.
 -11.9499998   -9060068.
 -11.7600002   -9061823.
 -11.5699997   -9063578.
 -11.3800001   -9065334.
 -11.1899996   -9067093.
 -11.   -9068856.
 -10.8100004   -9070619.
 -10.6199999   -9072385.
 -10.4300003   -9074148.
 -10.2399998   -9075912.
 -10.0500002   -9077671.
 -9.85999966   -9079430.
 -9.67000008   -9081189.
 -9.47999954   -9082947.
 -9.28999996   -9084702.
 -9.10000038   -9086452.
 -8.90999985   -9088196.
 -8.72000027   -9089936.
 -8.52999973   -9091672.
 -8.34000015   -9093406.
 -8.14999962   -9095141.
 -7.96000004   -9096878.
 -7.76999998   -9098611.
 -7.57999992   -9100344.
 -7.38999987   -9102072.
 -7.19999981   -9103795.
 -7.01000023   -9105510.
 -6.82000017   -9107221.
 -6.63000011   -9108930.
 -6.44000006   -9110643.
 -6.25   -9112363.
 -6.05999994   -9114095.
 -5.86999989   -9115838.
 -5.67999983   -9117590.
 -5.48999977   -9119345.
 -5.30000019   -9121101.
 -5.11000013   -9122852.
 -4.92000008   -9124597.
 -4.73000002   -9126340.
 -4.53999996   -9128084.
 -4.3499999   -9129827.
 -4.15999985   -9131578.
 -3.97000003   -9133334.
 -3.77999997   -9135092.
 -3.58999991   -9136848.
 -3.4000001   -9138599.
 -3.21000004   -9140338.
 -3.01999998   -9142068.
 -2.82999992   -9143792.
 -2.6400001   -9145515.
 -2.45000005   -9147246.
 -2.25999999   -9148986.
 -2.06999993   -9150735.
 -1.88   -9152493.
 -1.69000006   -9154256.
 -1.5   -9156014.
 -1.30999994   -9157763.
 -1.12   -9159507.
 -0.930000007   -9161243.
 -0.74000001   -9162976.
 -0.550000012   -9164713.
 -0.360000014   -9166459.
 -0.170000002   -9168218.
 1.999999955E-2   -9169985.
 0.209999993   -9171760.
 0.400000006   -9173536.
 0.589999974   -9175310.
 0.779999971   -9177079.
 0.970000029   -9178841.
 1.15999997   -9180600.
 1.35000002   -9182355.
 1.53999996   -9184105.
 1.73000002   -9185861.
 1.91999996   -9187620.
 2.1099999   -9189384.
 2.29999995   -9191156.
 2.49000001   -9192930.
 2.68000007   -9194705.
 2.86999989   -9196480.
 3.05999994   -9198254.
 3.25   -9200026.
 3.44000006   -9201797.
 3.63000011   -9203569.
 3.81999993   -9205341.
 4.01000023   -9207120.
 4.19999981   -9208903.
 4.38999987   -9210689.
 4.57999992   -9212480.
 4.76999998   -9214271.
 4.96000004   -9216061.
 5.1500001   -9217847.
 5.34000015   -9219632.
 5.53000021   -9221416.
 5.71999979   -9223203.
 5.90999985   -9224990.
 6.0999999   -9226781.
 6.28999996   -9228579.
 6.48000002   -9230378.
 6.67000008   -9232178.
 6.86000013   -9233985.
 7.05000019   -9235786.
 7.23999977   -9237583.
 7.42999983   -9239376.
 7.61999989   -9241155.
 7.80999994   -9242927.
 8.   -9244695.
 8.18999958   -9246455.
 8.38000011   -9248215.
 8.56999969   -9249977.
 8.76000023   -9251739.
 8.94999981   -9253506.
 9.14000034   -9255274.
 9.32999992   -9257041.
 9.52000046   -9258806.
 9.71000004   -9260568.
 9.89999962   -9262328.
 10.0900002   -9264085.
 10.2799997   -9265844.
 10.4700003   -9267606.
 10.6599998   -9269372.
 10.8500004   -9271137.
 11.04   -9272906.
 11.2299995   -9274673.
 11.4200001   -9276433.
 11.6099997   -9278187.
 11.8000002   -9279931.
 11.9899998   -9281662.
 12.1800003   -9283383.
 12.3699999   -9285096.
 12.5600004   -9286803.
 12.75   -9288508.
 12.9399996   -9290216.
 13.1300001   -9291929.
 13.3199997   -9293645.
 13.5100002   -9295367.
 13.6999998   -9297091.
 13.8900003   -9298819.
 14.0799999   -9300542.
 14.2700005   -9302265.
 14.46   -9303989.
 14.6499996   -9305709.
 14.8400002   -9307430.
 15.0299997   -9309157.
 15.2200003   -9310885.
 15.4099998   -9312617.
 15.6000004   -9314350.
 15.79   -9316079.
 15.9799995   -9317801.
 16.1700001   -9319514.
 16.3600006   -9321214.
 16.5499992   -9322901.
 16.7399998   -9324575.
 16.9300003   -9326239.
 17.1200008   -9327897.
 17.3099995   -9329555.
 17.5   -9331212.
 17.6900005   -9332870.
 17.8799992   -9334531.
 18.0699997   -9336192.
 18.2600002   -9337854.
 18.4500008   -9339517.
 18.6399994   -9341179.
 18.8299999   -9342843.
 19.0200005   -9344508.
 19.2099991   -9346173.
 19.3999996   -9347841.
 19.5900002   -9349509.
 19.7800007   -9351184.
 19.9699993   -9352860.
 20.1599998   -9354539.
 20.3500004   -9356215.
 20.5400009   -9357888.
 20.7299995   -9359553.
 20.9200001   -9361210.
 21.1100006   -9362862.
 21.2999992   -9364507.
 21.4899998   -9366153.
 21.6800003   -9367800.
 21.8700008   -9369455.
 22.0599995   -9371118.
 22.25   -9372790.
 22.4400005   -9374467.
 22.6299992   -9376142.
 22.8199997   -9377811.
 23.0100002   -9379471.
 23.2000008   -9381118.
 23.3899994   -9382756.
 23.5799999   -9384390.
 23.7700005   -9386027.
 23.9599991   -9387671.
 24.1499996   -9389329.
 24.3400002   -9391003.
 24.5300007   -9392687.
 24.7199993   -9394379.
 24.9099998   -9396063.
 25.1000004   -9397738.
 25.2900009   -9399397.
 25.4799995   -9401042.
 25.6700001   -9402677.
 25.8600006   -9404310.
 26.0499992   -9405950.
 26.2399998   -9407600.
 26.4300003   -9409263.
 26.6200008   -9410931.
 26.8099995   -9412598.
