 -30.   6144129.5
 -29.8099995   6145374.5
 -29.6200008   6146608.5
 -29.4300003   6147842.
 -29.2399998   6149074.5
 -29.0499992   6150312.
 -28.8600006   6151553.
 -28.6700001   6152802.
 -28.4799995   6154055.5
 -28.2900009   6155309.5
 -28.1000004   6156557.
 -27.9099998   6157800.
 -27.7199993   6159032.5
 -27.5300007   6160259.
 -27.3400002   6161479.5
 -27.1499996   6162703.
 -26.9599991   6163931.5
 -26.7700005   6165168.
 -26.5799999   6166415.5
 -26.3899994   6167670.
 -26.2000008   6168928.5
 -26.0100002   6170185.5
 -25.8199997   6171435.5
 -25.6299992   6172678.
 -25.4400005   6173907.
 -25.25   6175127.
 -25.0599995   6176347.5
 -24.8700008   6177570.
 -24.6800003   6178803.
 -24.4899998   6180048.5
 -24.2999992   6181309.
 -24.1100006   6182579.5
 -23.9200001   6183853.
 -23.7299995   6185119.5
 -23.5400009   6186379.
 -23.3500004   6187627.5
 -23.1599998   6188862.
 -22.9699993   6190091.5
 -22.7800007   6191326.
 -22.5900002   6192570.
 -22.3999996   6193830.
 -22.2099991   6195103.
 -22.0200005   6196385.
 -21.8299999   6197667.
 -21.6399994   6198940.
 -21.4500008   6200199.
 -21.2600002   6201442.
 -21.0699997   6202670.
 -20.8799992   6203892.
 -20.6900005   6205112.
 -20.5   6206335.5
 -20.3099995   6207563.
 -20.1200008   6208800.
 -19.9300003   6210037.
 -19.7399998   6211273.5
 -19.5499992   6212504.
 -19.3600006   6213728.
 -19.1700001   6214943.
 -18.9799995   6216152.
 -18.7900009   6217354.5
 -18.6000004   6218559.5
 -18.4099998   6219767.5
 -18.2199993   6220981.5
 -18.0300007   6222208.5
 -17.8400002   6223449.5
 -17.6499996   6224701.5
 -17.4599991   6225964.5
 -17.2700005   6227230.5
 -17.0799999   6228491.
 -16.8899994   6229743.5
 -16.7000008   6230982.
 -16.5100002   6232210.5
 -16.3199997   6233429.5
 -16.1299992   6234643.
 -15.9399996   6235856.
 -15.75   6237071.5
 -15.5600004   6238294.
 -15.3699999   6239522.5
 -15.1800003   6240754.5
 -14.9899998   6241987.5
 -14.8000002   6243212.
 -14.6099997   6244430.5
 -14.4200001   6245642.
 -14.2299995   6246852.5
 -14.04   6248065.
 -13.8500004   6249281.
 -13.6599998   6250506.
 -13.4700003   6251739.
 -13.2799997   6252974.
 -13.0900002   6254212.5
 -12.8999996   6255447.5
 -12.71   6256672.
 -12.5200005   6257885.
 -12.3299999   6259093.
 -12.1400003   6260296.
 -11.9499998   6261503.5
 -11.7600002   6262718.5
 -11.5699997   6263945.
 -11.3800001   6265182.
 -11.1899996   6266424.
 -11.   6267665.
 -10.8100004   6268903.
 -10.6199999   6270136.
 -10.4300003   6271360.
 -10.2399998   6272577.5
 -10.0500002   6273791.
 -9.85999966   6275004.5
 -9.67000008   6276222.5
 -9.47999954   6277449.5
 -9.28999996   6278680.5
 -9.10000038   6279915.
 -8.90999985   6281148.5
 -8.72000027   6282378.
 -8.52999973   6283599.
 -8.34000015   6284815.
 -8.14999962   6286024.5
 -7.96000004   6287230.
 -7.76999998   6288435.
 -7.57999992   6289641.
 -7.38999987   6290850.5
 -7.19999981   6292061.
 -7.01000023   6293275.
 -6.82000017   6294489.5
 -6.63000011   6295703.
 -6.44000006   6296914.
 -6.25   6298127.
 -6.05999994   6299344.5
 -5.86999989   6300563.5
 -5.67999983   6301783.
 -5.48999977   6303004.5
 -5.30000019   6304225.5
 -5.11000013   6305444.
 -4.92000008   6306661.
 -4.73000002   6307873.5
 -4.53999996   6309080.
 -4.3499999   6310284.
 -4.15999985   6311480.5
 -3.97000003   6312677.
 -3.77999997   6313873.5
 -3.58999991   6315068.
 -3.4000001   6316265.5
 -3.21000004   6317462.5
 -3.01999998   6318656.
 -2.82999992   6319851.5
 -2.6400001   6321046.
 -2.45000005   6322244.
 -2.25999999   6323445.5
 -2.06999993   6324653.5
 -1.88   6325863.5
 -1.69000006   6327076.
 -1.5   6328289.5
 -1.30999994   6329497.5
 -1.12   6330699.
 -0.930000007   6331896.5
 -0.74000001   6333090.
 -0.550000012   6334283.5
 -0.360000014   6335483.5
 -0.170000002   6336686.5
 1.999999955E-2   6337899.
 0.209999993   6339113.5
 0.400000006   6340323.5
 0.589999974   6341531.
 0.779999971   6342730.
 0.970000029   6343920.5
 1.15999997   6345106.
 1.35000002   6346291.5
 1.53999996   6347478.5
 1.73000002   6348677.
 1.91999996   6349882.5
 2.1099999   6351095.
 2.29999995   6352306.
 2.49000001   6353511.5
 2.68000007   6354707.
 2.86999989   6355892.5
 3.05999994   6357069.
 3.25   6358241.
 3.44000006   6359416.
 3.63000011   6360595.5
 3.81999993   6361781.5
 4.01000023   6362977.
 4.19999981   6364179.
 4.38999987   6365387.5
 4.57999992   6366598.
 4.76999998   6367803.
 4.96000004   6369001.5
 5.1500001   6370193.5
 5.34000015   6371378.
 5.53000021   6372559.
 5.71999979   6373741.
 5.90999985   6374925.
 6.0999999   6376115.
 6.28999996   6377309.
 6.48000002   6378506.
 6.67000008   6379705.
 6.86000013   6380907.5
 7.05000019   6382106.
 7.23999977   6383307.5
 7.42999983   6384509.5
 7.61999989   6385712.5
 7.80999994   6386919.5
 8.   6388131.
 8.18999958   6389347.
 8.38000011   6390563.5
 8.56999969   6391778.
 8.76000023   6392988.5
 8.94999981   6394191.5
 9.14000034   6395388.5
 9.32999992   6396575.5
 9.52000046   6397756.5
 9.71000004   6398931.5
 9.89999962   6400101.
 10.0900002   6401273.
 10.2799997   6402448.5
 10.4700003   6403629.
 10.6599998   6404813.5
 10.8500004   6406004.5
 11.04   6407194.5
 11.2299995   6408384.
 11.4200001   6409571.
 11.6099997   6410753.
 11.8000002   6411933.
 11.9899998   6413109.5
 12.1800003   6414290.5
 12.3699999   6415474.
 12.5600004   6416666.
 12.75   6417867.
 12.9399996   6419067.
 13.1300001   6420269.
 13.3199997   6421464.5
 13.5100002   6422649.5
 13.6999998   6423827.5
 13.8900003   6425000.
 14.0799999   6426172.
 14.2700005   6427347.5
 14.46   6428528.5
 14.6499996   6429716.5
 14.8400002   6430912.
 15.0299997   6432112.5
 15.2200003   6433308.
 15.4099998   6434500.5
 15.6000004   6435681.5
 15.79   6436851.
 15.9799995   6438016.5
 16.1700001   6439183.5
 16.3600006   6440353.5
 16.5499992   6441529.5
 16.7399998   6442710.5
 16.9300003   6443892.
 17.1200008   6445068.5
 17.3099995   6446237.5
 17.5   6447394.
 17.6900005   6448536.5
 17.8799992   6449670.
 18.0699997   6450800.5
 18.2600002   6451930.5
 18.4500008   6453069.
 18.6399994   6454212.
 18.8299999   6455364.
 19.0200005   6456525.5
 19.2099991   6457686.5
 19.3999996   6458845.5
 19.5900002   6460007.5
 19.7800007   6461168.
 19.9699993   6462326.
 20.1599998   6463482.
 20.3500004   6464636.
 20.5400009   6465788.5
 20.7299995   6466939.5
 20.9200001   6468093.5
 21.1100006   6469251.
 21.2999992   6470408.
 21.4899998   6471567.5
 21.6800003   6472728.
 21.8700008   6473885.
 22.0599995   6475036.
 22.25   6476177.
 22.4400005   6477307.
 22.6299992   6478424.
 22.8199997   6479534.
 23.0100002   6480638.
 23.2000008   6481749.
 23.3899994   6482865.5
 23.5799999   6483990.5
 23.7700005   6485122.
 23.9599991   6486257.5
 24.1499996   6487392.
 24.3400002   6488528.5
 24.5300007   6489659.
 24.7199993   6490785.5
 24.9099998   6491913.5
 25.1000004   6493038.
 25.2900009   6494166.
 25.4799995   6495297.
 25.6700001   6496434.5
 25.8600006   6497574.5
 26.0499992   6498717.5
 26.2399998   6499859.
 26.4300003   6500997.
 26.6200008   6502132.
 26.8099995   6503264.
