 -30.   8060872.
 -29.8099995   8062519.
 -29.6200008   8064168.
 -29.4300003   8065819.
 -29.2399998   8067467.
 -29.0499992   8069114.5
 -28.8600006   8070758.
 -28.6700001   8072403.
 -28.4799995   8074045.
 -28.2900009   8075688.
 -28.1000004   8077332.
 -27.9099998   8078977.
 -27.7199993   8080623.5
 -27.5300007   8082268.
 -27.3400002   8083914.
 -27.1499996   8085557.5
 -26.9599991   8087198.
 -26.7700005   8088838.5
 -26.5799999   8090479.5
 -26.3899994   8092117.5
 -26.2000008   8093755.
 -26.0100002   8095396.5
 -25.8199997   8097037.
 -25.6299992   8098677.5
 -25.4400005   8100318.5
 -25.25   8101959.
 -25.0599995   8103599.
 -24.8700008   8105238.
 -24.6800003   8106873.5
 -24.4899998   8108510.5
 -24.2999992   8110147.
 -24.1100006   8111783.5
 -23.9200001   8113419.
 -23.7299995   8115054.
 -23.5400009   8116688.5
 -23.3500004   8118324.5
 -23.1599998   8119958.
 -22.9699993   8121592.5
 -22.7800007   8123225.5
 -22.5900002   8124859.
 -22.3999996   8126492.
 -22.2099991   8128121.
 -22.0200005   8129754.
 -21.8299999   8131384.5
 -21.6399994   8133011.5
 -21.4500008   8134638.
 -21.2600002   8136265.5
 -21.0699997   8137890.
 -20.8799992   8139517.
 -20.6900005   8141144.5
 -20.5   8142774.5
 -20.3099995   8144403.5
 -20.1200008   8146035.
 -19.9300003   8147662.5
 -19.7399998   8149287.5
 -19.5499992   8150910.
 -19.3600006   8152529.
 -19.1700001   8154150.
 -18.9799995   8155771.5
 -18.7900009   8157393.
 -18.6000004   8159016.
 -18.4099998   8160639.5
 -18.2199993   8162266.
 -18.0300007   8163891.
 -17.8400002   8165512.5
 -17.6499996   8167134.
 -17.4599991   8168752.
 -17.2700005   8170366.5
 -17.0799999   8171982.
 -16.8899994   8173595.
 -16.7000008   8175207.5
 -16.5100002   8176821.5
 -16.3199997   8178435.
 -16.1299992   8180050.5
 -15.9399996   8181663.5
 -15.75   8183280.5
 -15.5600004   8184893.
 -15.3699999   8186503.
 -15.1800003   8188112.5
 -14.9899998   8189722.5
 -14.8000002   8191332.5
 -14.6099997   8192944.5
 -14.4200001   8194559.
 -14.2299995   8196174.5
 -14.04   8197787.5
 -13.8500004   8199399.
 -13.6599998   8201006.
 -13.4700003   8202609.5
 -13.2799997   8204211.
 -13.0900002   8205811.5
 -12.8999996   8207413.
 -12.71   8209016.5
 -12.5200005   8210623.
 -12.3299999   8212228.5
 -12.1400003   8213834.
 -11.9499998   8215437.
 -11.7600002   8217036.
 -11.5699997   8218632.5
 -11.3800001   8220228.5
 -11.1899996   8221820.5
 -11.   8223415.5
 -10.8100004   8225013.5
 -10.6199999   8226613.5
 -10.4300003   8228211.
 -10.2399998   8229804.5
 -10.0500002   8231397.5
 -9.85999966   8232982.
 -9.67000008   8234564.
 -9.47999954   8236144.5
 -9.28999996   8237723.5
 -9.10000038   8239309.
 -8.90999985   8240896.
 -8.72000027   8242485.5
 -8.52999973   8244075.
 -8.34000015   8245664.5
 -8.14999962   8247250.5
 -7.96000004   8248833.
 -7.76999998   8250415.
 -7.57999992   8251997.
 -7.38999987   8253583.
 -7.19999981   8255172.5
 -7.01000023   8256765.
 -6.82000017   8258359.5
 -6.63000011   8259952.5
 -6.44000006   8261541.5
 -6.25   8263125.
 -6.05999994   8264705.
 -5.86999989   8266280.5
 -5.67999983   8267859.
 -5.48999977   8269441.
 -5.30000019   8271026.
 -5.11000013   8272616.5
 -4.92000008   8274209.5
 -4.73000002   8275805.5
 -4.53999996   8277399.
 -4.3499999   8278991.5
 -4.15999985   8280578.5
 -3.97000003   8282166.
 -3.77999997   8283750.5
 -3.58999991   8285336.
 -3.4000001   8286922.5
 -3.21000004   8288511.5
 -3.01999998   8290105.
 -2.82999992   8291700.
 -2.6400001   8293297.
 -2.45000005   8294893.5
 -2.25999999   8296489.
 -2.06999993   8298079.5
 -1.88   8299667.
 -1.69000006   8301248.
 -1.5   8302828.5
 -1.30999994   8304408.
 -1.12   8305991.
 -0.930000007   8307575.5
 -0.74000001   8309162.
 -0.550000012   8310747.5
 -0.360000014   8312333.5
 -0.170000002   8313916.
 1.999999955E-2   8315497.5
 0.209999993   8317077.
 0.400000006   8318661.5
 0.589999974   8320242.5
 0.779999971   8321827.
 0.970000029   8323413.
 1.15999997   8324996.5
 1.35000002   8326580.5
 1.53999996   8328160.5
 1.73000002   8329733.
 1.91999996   8331306.
 2.1099999   8332875.
 2.29999995   8334441.
 2.49000001   8336005.5
 2.68000007   8337572.
 2.86999989   8339135.
 3.05999994   8340701.
 3.25   8342267.5
 3.44000006   8343833.5
 3.63000011   8345401.5
 3.81999993   8346968.
 4.01000023   8348532.5
 4.19999981   8350097.
 4.38999987   8351663.
 4.57999992   8353227.
 4.76999998   8354791.5
 4.96000004   8356360.5
 5.1500001   8357927.5
 5.34000015   8359496.5
 5.53000021   8361066.5
 5.71999979   8362632.5
 5.90999985   8364197.
 6.0999999   8365760.
 6.28999996   8367320.5
 6.48000002   8368882.
 6.67000008   8370446.
 6.86000013   8372010.
 7.05000019   8373573.5
 7.23999977   8375139.5
 7.42999983   8376705.
 7.61999989   8378269.5
 7.80999994   8379833.
 8.   8381396.
 8.18999958   8382960.
 8.38000011   8384519.
 8.56999969   8386077.5
 8.76000023   8387636.
 8.94999981   8389192.
 9.14000034   8390749.
 9.32999992   8392309.
 9.52000046   8393868.
 9.71000004   8395430.
 9.89999962   8396990.
 10.0900002   8398545.
 10.2799997   8400101.
 10.4700003   8401649.
 10.6599998   8403195.
 10.8500004   8404741.
 11.04   8406285.
 11.2299995   8407833.
 11.4200001   8409384.
 11.6099997   8410939.
 11.8000002   8412497.
 11.9899998   8414051.
 12.1800003   8415604.
 12.3699999   8417151.
 12.5600004   8418692.
 12.75   8420230.
 12.9399996   8421763.
 13.1300001   8423295.
 13.3199997   8424832.
 13.5100002   8426367.
 13.6999998   8427910.
 13.8900003   8429454.
 14.0799999   8431001.
 14.2700005   8432548.
 14.46   8434092.
 14.6499996   8435632.
 14.8400002   8437168.
 15.0299997   8438699.
 15.2200003   8440230.
 15.4099998   8441758.
 15.6000004   8443290.
 15.79   8444825.
 15.9799995   8446365.
 16.1700001   8447907.
 16.3600006   8449452.
 16.5499992   8450994.
 16.7399998   8452534.
 16.9300003   8454065.
 17.1200008   8455594.
 17.3099995   8457119.
 17.5   8458642.
 17.6900005   8460169.
 17.8799992   8461698.
 18.0699997   8463229.
 18.2600002   8464763.
 18.4500008   8466296.
 18.6399994   8467827.
 18.8299999   8469356.
 19.0200005   8470881.
 19.2099991   8472405.
 19.3999996   8473932.
 19.5900002   8475456.
 19.7800007   8476981.
 19.9699993   8478506.
 20.1599998   8480030.
 20.3500004   8481552.
 20.5400009   8483077.
 20.7299995   8484601.
 20.9200001   8486127.
 21.1100006   8487658.
 21.2999992   8489187.
 21.4899998   8490716.
 21.6800003   8492240.
 21.8700008   8493757.
 22.0599995   8495267.
 22.25   8496775.
 22.4400005   8498283.
 22.6299992   8499791.
 22.8199997   8501306.
 23.0100002   8502826.
 23.2000008   8504352.
 23.3899994   8505880.
 23.5799999   8507405.
 23.7700005   8508926.
 23.9599991   8510442.
 24.1499996   8511952.
 24.3400002   8513457.
 24.5300007   8514965.
 24.7199993   8516475.
 24.9099998   8517988.
 25.1000004   8519504.
 25.2900009   8521022.
 25.4799995   8522536.
 25.6700001   8524047.
 25.8600006   8525553.
 26.0499992   8527056.
 26.2399998   8528559.
 26.4300003   8530063.
 26.6200008   8531566.
 26.8099995   8533076.
