 -30.   7424529.
 -29.8099995   7426045.
 -29.6200008   7427564.
 -29.4300003   7429082.
 -29.2399998   7430601.5
 -29.0499992   7432119.
 -28.8600006   7433636.
 -28.6700001   7435148.5
 -28.4799995   7436662.5
 -28.2900009   7438175.5
 -28.1000004   7439686.5
 -27.9099998   7441199.
 -27.7199993   7442711.5
 -27.5300007   7444226.
 -27.3400002   7445740.5
 -27.1499996   7447255.5
 -26.9599991   7448768.5
 -26.7700005   7450281.5
 -26.5799999   7451791.5
 -26.3899994   7453299.
 -26.2000008   7454808.
 -26.0100002   7456314.
 -25.8199997   7457818.5
 -25.6299992   7459327.5
 -25.4400005   7460834.5
 -25.25   7462345.
 -25.0599995   7463855.5
 -24.8700008   7465365.5
 -24.6800003   7466874.5
 -24.4899998   7468383.
 -24.2999992   7469885.
 -24.1100006   7471389.
 -23.9200001   7472890.5
 -23.7299995   7474392.5
 -23.5400009   7475893.5
 -23.3500004   7477398.
 -23.1599998   7478902.5
 -22.9699993   7480408.
 -22.7800007   7481913.
 -22.5900002   7483416.
 -22.3999996   7484920.
 -22.2099991   7486421.5
 -22.0200005   7487921.5
 -21.8299999   7489418.5
 -21.6399994   7490915.5
 -21.4500008   7492410.
 -21.2600002   7493904.
 -21.0699997   7495399.
 -20.8799992   7496896.
 -20.6900005   7498392.5
 -20.5   7499892.5
 -20.3099995   7501394.
 -20.1200008   7502893.
 -19.9300003   7504391.
 -19.7399998   7505884.
 -19.5499992   7507375.5
 -19.3600006   7508866.5
 -19.1700001   7510356.5
 -18.9799995   7511848.
 -18.7900009   7513342.
 -18.6000004   7514836.5
 -18.4099998   7516333.5
 -18.2199993   7517827.5
 -18.0300007   7519322.
 -17.8400002   7520810.
 -17.6499996   7522295.
 -17.4599991   7523776.5
 -17.2700005   7525257.
 -17.0799999   7526738.
 -16.8899994   7528218.
 -16.7000008   7529701.5
 -16.5100002   7531185.5
 -16.3199997   7532672.5
 -16.1299992   7534157.
 -15.9399996   7535639.
 -15.75   7537120.5
 -15.5600004   7538598.5
 -15.3699999   7540079.
 -15.1800003   7541556.
 -14.9899998   7543033.
 -14.8000002   7544512.
 -14.6099997   7545992.
 -14.4200001   7547474.5
 -14.2299995   7548956.5
 -14.04   7550436.
 -13.8500004   7551914.
 -13.6599998   7553389.5
 -13.4700003   7554863.
 -13.2799997   7556336.5
 -13.0900002   7557809.5
 -12.8999996   7559283.
 -12.71   7560762.
 -12.5200005   7562238.
 -12.3299999   7563712.5
 -12.1400003   7565186.5
 -11.9499998   7566660.
 -11.7600002   7568126.5
 -11.5699997   7569596.
 -11.3800001   7571059.5
 -11.1899996   7572524.5
 -11.   7573987.5
 -10.8100004   7575448.
 -10.6199999   7576908.5
 -10.4300003   7578366.
 -10.2399998   7579822.5
 -10.0500002   7581281.5
 -9.85999966   7582740.5
 -9.67000008   7584202.5
 -9.47999954   7585665.
 -9.28999996   7587127.
 -9.10000038   7588587.5
 -8.90999985   7590046.5
 -8.72000027   7591502.
 -8.52999973   7592957.
 -8.34000015   7594409.
 -8.14999962   7595863.
 -7.96000004   7597318.5
 -7.76999998   7598776.
 -7.57999992   7600236.
 -7.38999987   7601697.
 -7.19999981   7603157.5
 -7.01000023   7604616.5
 -6.82000017   7606074.
 -6.63000011   7607529.
 -6.44000006   7608982.
 -6.25   7610434.
 -6.05999994   7611888.5
 -5.86999989   7613342.5
 -5.67999983   7614799.
 -5.48999977   7616256.5
 -5.30000019   7617716.
 -5.11000013   7619176.5
 -4.92000008   7620636.5
 -4.73000002   7622098.5
 -4.53999996   7623558.
 -4.3499999   7625018.
 -4.15999985   7626476.
 -3.97000003   7627933.5
 -3.77999997   7629391.5
 -3.58999991   7630849.
 -3.4000001   7632307.5
 -3.21000004   7633767.
 -3.01999998   7635227.5
 -2.82999992   7636693.5
 -2.6400001   7638156.
 -2.45000005   7639621.
 -2.25999999   7641082.5
 -2.06999993   7642538.5
 -1.88   7643992.
 -1.69000006   7645445.
 -1.5   7646894.5
 -1.30999994   7648349.
 -1.12   7649806.5
 -0.930000007   7651264.
 -0.74000001   7652722.
 -0.550000012   7654180.5
 -0.360000014   7655634.
 -0.170000002   7657085.5
 1.999999955E-2   7658534.
 0.209999993   7659977.
 0.400000006   7661421.5
 0.589999974   7662864.5
 0.779999971   7664303.
 0.970000029   7665741.5
 1.15999997   7667179.5
 1.35000002   7668613.5
 1.53999996   7670046.
 1.73000002   7671479.
 1.91999996   7672907.
 2.1099999   7674335.5
 2.29999995   7675764.
 2.49000001   7677193.5
 2.68000007   7678623.
 2.86999989   7680054.5
 3.05999994   7681487.
 3.25   7682921.
 3.44000006   7684354.5
 3.63000011   7685788.
 3.81999993   7687219.5
 4.01000023   7688648.
 4.19999981   7690073.5
 4.38999987   7691498.5
 4.57999992   7692921.5
 4.76999998   7694347.
 4.96000004   7695772.
 5.1500001   7697199.
 5.34000015   7698626.
 5.53000021   7700057.
 5.71999979   7701486.5
 5.90999985   7702914.
 6.0999999   7704342.
 6.28999996   7705767.5
 6.48000002   7707190.
 6.67000008   7708613.5
 6.86000013   7710035.
 7.05000019   7711459.
 7.23999977   7712884.5
 7.42999983   7714314.
 7.61999989   7715744.
 7.80999994   7717174.
 8.   7718603.5
 8.18999958   7720029.
 8.38000011   7721453.
 8.56999969   7722872.
 8.76000023   7724287.5
 8.94999981   7725703.
 9.14000034   7727119.
 9.32999992   7728534.5
 9.52000046   7729952.5
 9.71000004   7731372.
 9.89999962   7732793.
 10.0900002   7734213.
 10.2799997   7735632.
 10.4700003   7737047.
 10.6599998   7738460.
 10.8500004   7739868.5
 11.04   7741275.5
 11.2299995   7742680.
 11.4200001   7744088.
 11.6099997   7745497.
 11.8000002   7746912.5
 11.9899998   7748329.
 12.1800003   7749748.5
 12.3699999   7751165.
 12.5600004   7752579.5
 12.75   7753985.
 12.9399996   7755387.
 13.1300001   7756785.5
 13.3199997   7758182.5
 13.5100002   7759583.
 13.6999998   7760986.5
 13.8900003   7762392.
 14.0799999   7763802.5
 14.2700005   7765210.
 14.46   7766618.
 14.6499996   7768020.
 14.8400002   7769418.
 15.0299997   7770812.
 15.2200003   7772204.5
 15.4099998   7773594.
 15.6000004   7774986.
 15.79   7776380.5
 15.9799995   7777778.5
 16.1700001   7779177.5
 16.3600006   7780580.5
 16.5499992   7781985.5
 16.7399998   7783386.
 16.9300003   7784791.
 17.1200008   7786193.
 17.3099995   7787594.
 17.5   7788997.
 17.6900005   7790399.5
 17.8799992   7791802.5
 18.0699997   7793205.
 18.2600002   7794607.
 18.4500008   7796013.
 18.6399994   7797415.
 18.8299999   7798821.
 19.0200005   7800223.
 19.2099991   7801622.
 19.3999996   7803020.
 19.5900002   7804413.
 19.7800007   7805802.
 19.9699993   7807185.
 20.1599998   7808569.5
 20.3500004   7809958.
 20.5400009   7811350.
 20.7299995   7812747.5
 20.9200001   7814145.5
 21.1100006   7815547.
 21.2999992   7816940.5
 21.4899998   7818329.5
 21.6800003   7819712.5
 21.8700008   7821089.5
 22.0599995   7822469.5
 22.25   7823850.5
 22.4400005   7825237.
 22.6299992   7826631.5
 22.8199997   7828026.
 23.0100002   7829421.
 23.2000008   7830812.5
 23.3899994   7832196.5
 23.5799999   7833575.5
 23.7700005   7834954.
 23.9599991   7836332.5
 24.1499996   7837713.
 24.3400002   7839097.
 24.5300007   7840477.5
 24.7199993   7841855.5
 24.9099998   7843227.
 25.1000004   7844598.
 25.2900009   7845962.5
 25.4799995   7847328.
 25.6700001   7848696.
 25.8600006   7850066.
 26.0499992   7851440.
 26.2399998   7852817.
 26.4300003   7854192.5
 26.6200008   7855566.5
 26.8099995   7856935.5
