 -30.   1310523.5
 -29.8099995   1310770.75
 -29.6200008   1311012.75
 -29.4300003   1311267.38
 -29.2399998   1311533.75
 -29.0499992   1311803.5
 -28.8600006   1312057.5
 -28.6700001   1312297.
 -28.4799995   1312534.
 -28.2900009   1312784.13
 -28.1000004   1313053.
 -27.9099998   1313324.13
 -27.7199993   1313584.63
 -27.5300007   1313829.38
 -27.3400002   1314065.
 -27.1499996   1314312.5
 -26.9599991   1314576.13
 -26.7700005   1314846.25
 -26.5799999   1315106.5
 -26.3899994   1315349.
 -26.2000008   1315583.25
 -26.0100002   1315825.5
 -25.8199997   1316084.63
 -25.6299992   1316352.5
 -25.4400005   1316615.75
 -25.25   1316860.88
 -25.0599995   1317096.75
 -24.8700008   1317338.75
 -24.6800003   1317599.5
 -24.4899998   1317871.75
 -24.2999992   1318139.88
 -24.1100006   1318391.13
 -23.9200001   1318629.5
 -23.7299995   1318873.38
 -23.5400009   1319133.75
 -23.3500004   1319407.25
 -23.1599998   1319676.63
 -22.9699993   1319934.38
 -22.7800007   1320175.25
 -22.5900002   1320416.88
 -22.3999996   1320675.5
 -22.2099991   1320949.63
 -22.0200005   1321220.25
 -21.8299999   1321479.25
 -21.6399994   1321727.63
 -21.4500008   1321973.63
 -21.2600002   1322234.75
 -21.0699997   1322510.88
 -20.8799992   1322790.5
 -20.6900005   1323057.
 -20.5   1323309.88
 -20.3099995   1323558.88
 -20.1200008   1323820.88
 -19.9300003   1324095.
 -19.7399998   1324373.
 -19.5499992   1324639.38
 -19.3600006   1324890.38
 -19.1700001   1325136.88
 -18.9799995   1325392.5
 -18.7900009   1325666.25
 -18.6000004   1325943.13
 -18.4099998   1326213.5
 -18.2199993   1326471.63
 -18.0300007   1326720.25
 -17.8400002   1326976.5
 -17.6499996   1327248.5
 -17.4599991   1327528.25
 -17.2700005   1327799.88
 -17.0799999   1328056.38
 -16.8899994   1328304.88
 -16.7000008   1328560.13
 -16.5100002   1328828.63
 -16.3199997   1329107.63
 -16.1299992   1329382.88
 -15.9399996   1329647.75
 -15.75   1329901.75
 -15.5600004   1330156.88
 -15.3699999   1330425.5
 -15.1800003   1330704.5
 -14.9899998   1330980.63
 -14.8000002   1331243.75
 -14.6099997   1331495.
 -14.4200001   1331745.13
 -14.2299995   1332010.37
 -14.04   1332289.
 -13.8500004   1332564.75
 -13.6599998   1332825.38
 -13.4700003   1333074.
 -13.2799997   1333318.75
 -13.0900002   1333575.75
 -12.8999996   1333850.38
 -12.71   1334127.5
 -12.5200005   1334392.38
 -12.3299999   1334644.63
 -12.1400003   1334893.25
 -11.9499998   1335155.25
 -11.7600002   1335429.
 -11.5699997   1335711.25
 -11.3800001   1335980.88
 -11.1899996   1336233.
 -11.   1336481.13
 -10.8100004   1336735.75
 -10.6199999   1337008.13
 -10.4300003   1337288.
 -10.2399998   1337559.5
 -10.0500002   1337817.88
 -9.85999966   1338067.13
 -9.67000008   1338321.5
 -9.47999954   1338592.25
 -9.28999996   1338874.75
 -9.10000038   1339151.88
 -8.90999985   1339418.
 -8.72000027   1339674.13
 -8.52999973   1339937.88
 -8.34000015   1340219.88
 -8.14999962   1340510.88
 -7.96000004   1340799.5
 -7.76999998   1341071.13
 -7.57999992   1341332.5
 -7.38999987   1341596.63
 -7.19999981   1341875.
 -7.01000023   1342166.5
 -6.82000017   1342460.5
 -6.63000011   1342742.12
 -6.44000006   1343012.63
 -6.25   1343284.38
 -6.05999994   1343571.38
 -5.86999989   1343873.63
 -5.67999983   1344175.88
 -5.48999977   1344466.75
 -5.30000019   1344743.63
 -5.11000013   1345017.75
 -4.92000008   1345305.13
 -4.73000002   1345607.13
 -4.53999996   1345912.63
 -4.3499999   1346203.75
 -4.15999985   1346478.
 -3.97000003   1346747.25
 -3.77999997   1347022.5
 -3.58999991   1347314.88
 -3.4000001   1347609.5
 -3.21000004   1347893.75
 -3.01999998   1348157.75
 -2.82999992   1348411.88
 -2.6400001   1348670.88
 -2.45000005   1348943.38
 -2.25999999   1349223.63
 -2.06999993   1349496.5
 -1.88   1349750.88
 -1.69000006   1349996.25
 -1.5   1350247.63
 -1.30999994   1350511.38
 -1.12   1350790.25
 -0.930000007   1351066.25
 -0.74000001   1351325.
 -0.550000012   1351573.88
 -0.360000014   1351827.5
 -0.170000002   1352097.
 1.999999955E-2   1352382.25
 0.209999993   1352664.13
 0.400000006   1352928.88
 0.589999974   1353179.38
 0.779999971   1353430.25
 0.970000029   1353694.63
 1.15999997   1353975.75
 1.35000002   1354256.
 1.53999996   1354520.63
 1.73000002   1354770.13
 1.91999996   1355021.
 2.1099999   1355285.13
 2.29999995   1355565.75
 2.49000001   1355852.25
 2.68000007   1356125.5
 2.86999989   1356378.75
 3.05999994   1356629.5
 3.25   1356893.13
 3.44000006   1357171.5
 3.63000011   1357462.63
 3.81999993   1357743.88
 4.01000023   1358005.5
 4.19999981   1358260.25
 4.38999987   1358524.13
 4.57999992   1358805.38
 4.76999998   1359097.38
 4.96000004   1359381.5
 5.1500001   1359649.75
 5.34000015   1359906.
 5.53000021   1360171.38
 5.71999979   1360454.63
 5.90999985   1360754.38
 6.0999999   1361049.5
 6.28999996   1361327.13
 6.48000002   1361593.63
 6.67000008   1361858.88
 6.86000013   1362138.75
 7.05000019   1362430.88
 7.23999977   1362721.5
 7.42999983   1362990.88
 7.61999989   1363245.25
 7.80999994   1363497.75
 8.   1363765.25
 8.18999958   1364051.
 8.38000011   1364338.63
 8.56999969   1364612.75
 8.76000023   1364872.38
 8.94999981   1365125.13
 9.14000034   1365391.5
 9.32999992   1365673.
 9.52000046   1365955.
 9.71000004   1366222.38
 9.89999962   1366472.88
 10.0900002   1366721.25
 10.2799997   1366983.
 10.4700003   1367261.63
 10.6599998   1367548.13
 10.8500004   1367824.25
 11.04   1368086.5
 11.2299995   1368344.
 11.4200001   1368612.25
 11.6099997   1368895.88
 11.8000002   1369189.25
 11.9899998   1369473.5
 12.1800003   1369742.
 12.3699999   1370002.13
 12.5600004   1370269.38
 12.75   1370553.5
 12.9399996   1370850.
 13.1300001   1371142.88
 13.3199997   1371414.88
 13.5100002   1371678.5
 13.6999998   1371945.63
 13.8900003   1372227.
 14.0799999   1372520.88
 14.2700005   1372808.75
 14.46   1373077.25
 14.6499996   1373334.75
 14.8400002   1373594.75
 15.0299997   1373869.5
 15.2200003   1374156.75
 15.4099998   1374447.13
 15.6000004   1374720.38
 15.79   1374983.25
 15.9799995   1375251.
 16.1700001   1375537.13
 16.3600006   1375839.13
 16.5499992   1376141.25
 16.7399998   1376430.
 16.9300003   1376704.13
 17.1200008   1376971.5
 17.3099995   1377250.75
 17.5   1377544.75
 17.6900005   1377840.38
 17.8799992   1378121.25
 18.0699997   1378387.38
 18.2600002   1378646.75
 18.4500008   1378917.13
 18.6399994   1379202.5
 18.8299999   1379489.25
 19.0200005   1379765.
 19.2099991   1380025.88
 19.3999996   1380284.
 19.5900002   1380550.25
 19.7800007   1380833.
 19.9699993   1381123.88
 20.1599998   1381410.88
 20.3500004   1381683.25
 20.5400009   1381950.25
 20.7299995   1382224.38
 20.9200001   1382513.75
 21.1100006   1382811.88
 21.2999992   1383106.38
 21.4899998   1383378.38
 21.6800003   1383639.88
 21.8700008   1383899.5
 22.0599995   1384175.63
 22.25   1384462.
 22.4400005   1384740.25
 22.6299992   1385004.
 22.8199997   1385256.88
 23.0100002   1385511.
 23.2000008   1385782.13
 23.3899994   1386066.13
 23.5799999   1386347.38
 23.7700005   1386612.13
 23.9599991   1386864.63
 24.1499996   1387115.62
 24.3400002   1387379.13
 24.5300007   1387658.38
 24.7199993   1387941.38
 24.9099998   1388212.13
 25.1000004   1388470.5
 25.2900009   1388723.88
 25.4799995   1388993.38
 25.6700001   1389276.5
 25.8600006   1389566.38
 26.0499992   1389845.63
 26.2399998   1390109.5
 26.4300003   1390367.25
 26.6200008   1390637.5
 26.8099995   1390926.63
