 -30.   5220593.5
 -29.8099995   5221677.
 -29.6200008   5222774.
 -29.4300003   5223877.
 -29.2399998   5224980.5
 -29.0499992   5226079.
 -28.8600006   5227169.5
 -28.6700001   5228250.
 -28.4799995   5229327.
 -28.2900009   5230404.
 -28.1000004   5231484.5
 -27.9099998   5232577.5
 -27.7199993   5233682.
 -27.5300007   5234798.5
 -27.3400002   5235918.5
 -27.1499996   5237037.5
 -26.9599991   5238149.
 -26.7700005   5239248.
 -26.5799999   5240332.
 -26.3899994   5241404.5
 -26.2000008   5242470.5
 -26.0100002   5243538.
 -25.8199997   5244611.5
 -25.6299992   5245697.5
 -25.4400005   5246798.
 -25.25   5247908.
 -25.0599995   5249023.5
 -24.8700008   5250137.5
 -24.6800003   5251239.5
 -24.4899998   5252332.5
 -24.2999992   5253412.
 -24.1100006   5254483.5
 -23.9200001   5255553.
 -23.7299995   5256627.5
 -23.5400009   5257712.
 -23.3500004   5258809.5
 -23.1599998   5259920.
 -22.9699993   5261038.
 -22.7800007   5262155.5
 -22.5900002   5263266.
 -22.3999996   5264364.5
 -22.2099991   5265450.
 -22.0200005   5266522.
 -21.8299999   5267587.
 -21.6399994   5268651.5
 -21.4500008   5269725.
 -21.2600002   5270807.5
 -21.0699997   5271901.5
 -20.8799992   5273002.5
 -20.6900005   5274105.
 -20.5   5275204.
 -20.3099995   5276291.
 -20.1200008   5277363.
 -19.9300003   5278424.
 -19.7399998   5279474.
 -19.5499992   5280521.
 -19.3600006   5281573.
 -19.1700001   5282633.5
 -18.9799995   5283707.
 -18.7900009   5284789.
 -18.6000004   5285878.
 -18.4099998   5286967.5
 -18.2199993   5288047.5
 -18.0300007   5289115.5
 -17.8400002   5290166.5
 -17.6499996   5291206.5
 -17.4599991   5292237.5
 -17.2700005   5293271.5
 -17.0799999   5294313.5
 -16.8899994   5295370.
 -16.7000008   5296438.
 -16.5100002   5297517.
 -16.3199997   5298599.5
 -16.1299992   5299673.5
 -15.9399996   5300736.
 -15.75   5301780.5
 -15.5600004   5302807.5
 -15.3699999   5303823.5
 -15.1800003   5304835.
 -14.9899998   5305851.
 -14.8000002   5306878.
 -14.6099997   5307919.5
 -14.4200001   5308972.
 -14.2299995   5310030.
 -14.04   5311090.5
 -13.8500004   5312140.
 -13.6599998   5313175.
 -13.4700003   5314196.5
 -13.2799997   5315207.
 -13.0900002   5316214.5
 -12.8999996   5317227.
 -12.71   5318251.5
 -12.5200005   5319290.
 -12.3299999   5320344.5
 -12.1400003   5321411.5
 -11.9499998   5322483.
 -11.7600002   5323549.5
 -11.5699997   5324607.
 -11.3800001   5325650.
 -11.1899996   5326675.
 -11.   5327689.
 -10.8100004   5328699.
 -10.6199999   5329710.
 -10.4300003   5330729.5
 -10.2399998   5331760.5
 -10.0500002   5332801.5
 -9.85999966   5333846.5
 -9.67000008   5334889.
 -9.47999954   5335923.
 -9.28999996   5336941.
 -9.10000038   5337943.
 -8.90999985   5338930.5
 -8.72000027   5339913.
 -8.52999973   5340900.5
 -8.34000015   5341900.5
 -8.14999962   5342920.
 -7.96000004   5343960.
 -7.76999998   5345015.
 -7.57999992   5346074.5
 -7.38999987   5347131.
 -7.19999981   5348179.
 -7.01000023   5349210.
 -6.82000017   5350227.5
 -6.63000011   5351237.
 -6.44000006   5352244.5
 -6.25   5353261.
 -6.05999994   5354292.5
 -5.86999989   5355339.5
 -5.67999983   5356398.5
 -5.48999977   5357464.5
 -5.30000019   5358524.5
 -5.11000013   5359574.5
 -4.92000008   5360608.
 -4.73000002   5361622.
 -4.53999996   5362619.5
 -4.3499999   5363611.
 -4.15999985   5364601.
 -3.97000003   5365600.
 -3.77999997   5366612.
 -3.58999991   5367638.5
 -3.4000001   5368675.5
 -3.21000004   5369715.
 -3.01999998   5370752.5
 -2.82999992   5371779.
 -2.6400001   5372792.
 -2.45000005   5373791.
 -2.25999999   5374780.5
 -2.06999993   5375766.5
 -1.88   5376757.5
 -1.69000006   5377761.
 -1.5   5378782.
 -1.30999994   5379816.
 -1.12   5380859.5
 -0.930000007   5381905.
 -0.74000001   5382940.5
 -0.550000012   5383962.
 -0.360000014   5384964.
 -0.170000002   5385950.
 1.999999955E-2   5386927.5
 0.209999993   5387901.5
 0.400000006   5388884.5
 0.589999974   5389883.
 0.779999971   5390897.
 0.970000029   5391919.5
 1.15999997   5392947.5
 1.35000002   5393967.
 1.53999996   5394973.
 1.73000002   5395960.
 1.91999996   5396930.
 2.1099999   5397888.
 2.29999995   5398844.5
 2.49000001   5399809.
 2.68000007   5400786.5
 2.86999989   5401784.5
 3.05999994   5402795.
 3.25   5403813.
 3.44000006   5404825.5
 3.63000011   5405826.
 3.81999993   5406808.5
 4.01000023   5407775.5
 4.19999981   5408729.5
 4.38999987   5409680.5
 4.57999992   5410636.5
 4.76999998   5411607.5
 4.96000004   5412596.5
 5.1500001   5413607.5
 5.34000015   5414632.
 5.53000021   5415660.5
 5.71999979   5416680.
 5.90999985   5417688.
 6.0999999   5418678.5
 6.28999996   5419657.5
 6.48000002   5420628.5
 6.67000008   5421601.
 6.86000013   5422579.5
 7.05000019   5423572.5
 7.23999977   5424580.
 7.42999983   5425601.5
 7.61999989   5426625.5
 7.80999994   5427643.5
 8.   5428648.
 8.18999958   5429632.
 8.38000011   5430602.
 8.56999969   5431558.
 8.76000023   5432514.
 8.94999981   5433474.5
 9.14000034   5434449.
 9.32999992   5435442.5
 9.52000046   5436452.5
 9.71000004   5437474.
 9.89999962   5438501.5
 10.0900002   5439523.5
 10.2799997   5440535.5
 10.4700003   5441534.5
 10.6599998   5442523.5
 10.8500004   5443503.5
 11.04   5444484.5
 11.2299995   5445472.
 11.4200001   5446467.5
 11.6099997   5447474.
 11.8000002   5448489.5
 11.9899998   5449510.5
 12.1800003   5450527.5
 12.3699999   5451532.5
 12.5600004   5452524.5
 12.75   5453498.
 12.9399996   5454460.5
 13.1300001   5455416.
 13.3199997   5456372.
 13.5100002   5457337.
 13.6999998   5458313.
 13.8900003   5459303.5
 14.0799999   5460302.5
 14.2700005   5461304.5
 14.46   5462299.
 14.6499996   5463280.5
 14.8400002   5464244.
 15.0299997   5465192.5
 15.2200003   5466132.
 15.4099998   5467071.5
 15.6000004   5468020.5
 15.79   5468986.
 15.9799995   5469969.5
 16.1700001   5470968.5
 16.3600006   5471977.5
 16.5499992   5472989.
 16.7399998   5473997.5
 16.9300003   5474995.5
 17.1200008   5475983.
 17.3099995   5476964.
 17.5   5477943.5
 17.6900005   5478930.
 17.8799992   5479931.
 18.0699997   5480951.
 18.2600002   5481986.5
 18.4500008   5483032.
 18.6399994   5484080.5
 18.8299999   5485119.
 19.0200005   5486142.5
 19.2099991   5487143.5
 19.3999996   5488123.
 19.5900002   5489090.5
 19.7800007   5490055.
 19.9699993   5491028.
 20.1599998   5492011.
 20.3500004   5493007.
 20.5400009   5494007.5
 20.7299995   5495002.5
 20.9200001   5495987.
 21.1100006   5496951.
 21.2999992   5497899.
 21.4899998   5498835.
 21.6800003   5499771.
 21.8700008   5500712.5
 22.0599995   5501668.
 22.25   5502640.5
 22.4400005   5503627.
 22.6299992   5504620.
 22.8199997   5505616.5
 23.0100002   5506608.
 23.2000008   5507591.
 23.3899994   5508566.5
 23.5799999   5509532.
 23.7700005   5510490.
 23.9599991   5511442.
 24.1499996   5512391.5
 24.3400002   5513342.5
 24.5300007   5514301.5
 24.7199993   5515276.
 24.9099998   5516261.
 25.1000004   5517256.5
 25.2900009   5518249.5
 25.4799995   5519232.
 25.6700001   5520196.
 25.8600006   5521136.5
 26.0499992   5522061.5
 26.2399998   5522978.5
 26.4300003   5523898.5
 26.6200008   5524833.5
 26.8099995   5525787.5
