 -30.   9219712.
 -29.8099995   9221585.
 -29.6200008   9223455.
 -29.4300003   9225329.
 -29.2399998   9227211.
 -29.0499992   9229092.
 -28.8600006   9230965.
 -28.6700001   9232831.
 -28.4799995   9234697.
 -28.2900009   9236571.
 -28.1000004   9238455.
 -27.9099998   9240340.
 -27.7199993   9242220.
 -27.5300007   9244089.
 -27.3400002   9245956.
 -27.1499996   9247830.
 -26.9599991   9249710.
 -26.7700005   9251593.
 -26.5799999   9253471.
 -26.3899994   9255339.
 -26.2000008   9257205.
 -26.0100002   9259076.
 -25.8199997   9260957.
 -25.6299992   9262841.
 -25.4400005   9264724.
 -25.25   9266597.
 -25.0599995   9268468.
 -24.8700008   9270343.
 -24.6800003   9272225.
 -24.4899998   9274113.
 -24.2999992   9275999.
 -24.1100006   9277876.
 -23.9200001   9279751.
 -23.7299995   9281627.
 -23.5400009   9283512.
 -23.3500004   9285404.
 -23.1599998   9287295.
 -22.9699993   9289179.
 -22.7800007   9291056.
 -22.5900002   9292932.
 -22.3999996   9294815.
 -22.2099991   9296705.
 -22.0200005   9298596.
 -21.8299999   9300482.
 -21.6399994   9302359.
 -21.4500008   9304236.
 -21.2600002   9306119.
 -21.0699997   9308010.
 -20.8799992   9309904.
 -20.6900005   9311791.
 -20.5   9313669.
 -20.3099995   9315541.
 -20.1200008   9317417.
 -19.9300003   9319299.
 -19.7399998   9321183.
 -19.5499992   9323062.
 -19.3600006   9324932.
 -19.1700001   9326800.
 -18.9799995   9328672.
 -18.7900009   9330557.
 -18.6000004   9332447.
 -18.4099998   9334337.
 -18.2199993   9336220.
 -18.0300007   9338099.
 -17.8400002   9339979.
 -17.6499996   9341868.
 -17.4599991   9343762.
 -17.2700005   9345650.
 -17.0799999   9347525.
 -16.8899994   9349391.
 -16.7000008   9351258.
 -16.5100002   9353135.
 -16.3199997   9355016.
 -16.1299992   9356899.
 -15.9399996   9358773.
 -15.75   9360638.
 -15.5600004   9362503.
 -15.3699999   9364377.
 -15.1800003   9366257.
 -14.9899998   9368138.
 -14.8000002   9370011.
 -14.6099997   9371878.
 -14.4200001   9373750.
 -14.2299995   9375633.
 -14.04   9377530.
 -13.8500004   9379429.
 -13.6599998   9381319.
 -13.4700003   9383204.
 -13.2799997   9385088.
 -13.0900002   9386978.
 -12.8999996   9388877.
 -12.71   9390775.
 -12.5200005   9392664.
 -12.3299999   9394545.
 -12.1400003   9396427.
 -11.9499998   9398320.
 -11.7600002   9400221.
 -11.5699997   9402125.
 -11.3800001   9404020.
 -11.1899996   9405905.
 -11.   9407784.
 -10.8100004   9409667.
 -10.6199999   9411555.
 -10.4300003   9413443.
 -10.2399998   9415323.
 -10.0500002   9417196.
 -9.85999966   9419065.
 -9.67000008   9420944.
 -9.47999954   9422833.
 -9.28999996   9424727.
 -9.10000038   9426619.
 -8.90999985   9428507.
 -8.72000027   9430397.
 -8.52999973   9432292.
 -8.34000015   9434194.
 -8.14999962   9436104.
 -7.96000004   9438011.
 -7.76999998   9439913.
 -7.57999992   9441811.
 -7.38999987   9443706.
 -7.19999981   9445605.
 -7.01000023   9447506.
 -6.82000017   9449405.
 -6.63000011   9451301.
 -6.44000006   9453197.
 -6.25   9455094.
 -6.05999994   9456992.
 -5.86999989   9458896.
 -5.67999983   9460801.
 -5.48999977   9462707.
 -5.30000019   9464611.
 -5.11000013   9466511.
 -4.92000008   9468408.
 -4.73000002   9470304.
 -4.53999996   9472201.
 -4.3499999   9474099.
 -4.15999985   9475994.
 -3.97000003   9477884.
 -3.77999997   9479770.
 -3.58999991   9481657.
 -3.4000001   9483543.
 -3.21000004   9485434.
 -3.01999998   9487324.
 -2.82999992   9489210.
 -2.6400001   9491097.
 -2.45000005   9492984.
 -2.25999999   9494881.
 -2.06999993   9496786.
 -1.88   9498694.
 -1.69000006   9500599.
 -1.5   9502500.
 -1.30999994   9504403.
 -1.12   9506309.
 -0.930000007   9508221.
 -0.74000001   9510132.
 -0.550000012   9512034.
 -0.360000014   9513926.
 -0.170000002   9515813.
 1.999999955E-2   9517701.
 0.209999993   9519598.
 0.400000006   9521498.
 0.589999974   9523395.
 0.779999971   9525288.
 0.970000029   9527182.
 1.15999997   9529090.
 1.35000002   9531009.
 1.53999996   9532936.
 1.73000002   9534855.
 1.91999996   9536763.
 2.1099999   9538665.
 2.29999995   9540575.
 2.49000001   9542494.
 2.68000007   9544414.
 2.86999989   9546323.
 3.05999994   9548224.
 3.25   9550120.
 3.44000006   9552022.
 3.63000011   9553938.
 3.81999993   9555855.
 4.01000023   9557764.
 4.19999981   9559656.
 4.38999987   9561543.
 4.57999992   9563435.
 4.76999998   9565334.
 4.96000004   9567231.
 5.1500001   9569119.
 5.34000015   9570994.
 5.53000021   9572863.
 5.71999979   9574744.
 5.90999985   9576637.
 6.0999999   9578536.
 6.28999996   9580429.
 6.48000002   9582313.
 6.67000008   9584198.
 6.86000013   9586096.
 7.05000019   9588007.
 7.23999977   9589924.
 7.42999983   9591837.
 7.61999989   9593740.
 7.80999994   9595642.
 8.   9597553.
 8.18999958   9599478.
 8.38000011   9601407.
 8.56999969   9603335.
 8.76000023   9605254.
 8.94999981   9607170.
 9.14000034   9609090.
 9.32999992   9611019.
 9.52000046   9612949.
 9.71000004   9614872.
 9.89999962   9616783.
 10.0900002   9618689.
 10.2799997   9620598.
 10.4700003   9622517.
 10.6599998   9624440.
 10.8500004   9626361.
 11.04   9628277.
 11.2299995   9630187.
 11.4200001   9632101.
 11.6099997   9634022.
 11.8000002   9635949.
 11.9899998   9637875.
 12.1800003   9639793.
 12.3699999   9641708.
 12.5600004   9643626.
 12.75   9645550.
 12.9399996   9647479.
 13.1300001   9649407.
 13.3199997   9651326.
 13.5100002   9653238.
 13.6999998   9655142.
 13.8900003   9657049.
 14.0799999   9658956.
 14.2700005   9660862.
 14.46   9662759.
 14.6499996   9664646.
 14.8400002   9666531.
 15.0299997   9668414.
 15.2200003   9670304.
 15.4099998   9672197.
 15.6000004   9674091.
 15.79   9675985.
 15.9799995   9677880.
 16.1700001   9679783.
 16.3600006   9681696.
 16.5499992   9683618.
 16.7399998   9685539.
 16.9300003   9687455.
 17.1200008   9689368.
 17.3099995   9691278.
 17.5   9693190.
 17.6900005   9695104.
 17.8799992   9697018.
 18.0699997   9698928.
 18.2600002   9700834.
 18.4500008   9702741.
 18.6399994   9704652.
 18.8299999   9706570.
 19.0200005   9708488.
 19.2099991   9710405.
 19.3999996   9712316.
 19.5900002   9714228.
 19.7800007   9716148.
 19.9699993   9718076.
 20.1599998   9720011.
 20.3500004   9721946.
 20.5400009   9723875.
 20.7299995   9725805.
 20.9200001   9727739.
 21.1100006   9729679.
 21.2999992   9731624.
 21.4899998   9733559.
 21.6800003   9735485.
 21.8700008   9737398.
 22.0599995   9739310.
 22.25   9741225.
 22.4400005   9743145.
 22.6299992   9745060.
 22.8199997   9746971.
 23.0100002   9748878.
 23.2000008   9750792.
 23.3899994   9752718.
 23.5799999   9754655.
 23.7700005   9756591.
 23.9599991   9758518.
 24.1499996   9760436.
 24.3400002   9762355.
 24.5300007   9764285.
 24.7199993   9766225.
 24.9099998   9768159.
 25.1000004   9770085.
 25.2900009   9772001.
 25.4799995   9773919.
 25.6700001   9775854.
 25.8600006   9777804.
 26.0499992   9779760.
 26.2399998   9781706.
 26.4300003   9783642.
 26.6200008   9785576.
 26.8099995   9787517.
