 -30.   -3092081.
 -29.8099995   -3092717.
 -29.6200008   -3093355.5
 -29.4300003   -3093995.
 -29.2399998   -3094632.
 -29.0499992   -3095267.5
 -28.8600006   -3095899.5
 -28.6700001   -3096530.25
 -28.4799995   -3097157.75
 -28.2900009   -3097787.75
 -28.1000004   -3098417.25
 -27.9099998   -3099046.75
 -27.7199993   -3099678.5
 -27.5300007   -3100307.25
 -27.3400002   -3100934.5
 -27.1499996   -3101559.25
 -26.9599991   -3102183.25
 -26.7700005   -3102807.25
 -26.5799999   -3103432.5
 -26.3899994   -3104058.5
 -26.2000008   -3104688.25
 -26.0100002   -3105320.75
 -25.8199997   -3105954.25
 -25.6299992   -3106585.5
 -25.4400005   -3107215.5
 -25.25   -3107846.
 -25.0599995   -3108474.25
 -24.8700008   -3109102.5
 -24.6800003   -3109730.25
 -24.4899998   -3110359.5
 -24.2999992   -3110991.25
 -24.1100006   -3111621.5
 -23.9200001   -3112253.25
 -23.7299995   -3112883.5
 -23.5400009   -3113510.25
 -23.3500004   -3114137.
 -23.1599998   -3114763.5
 -22.9699993   -3115391.
 -22.7800007   -3116020.25
 -22.5900002   -3116652.
 -22.3999996   -3117283.5
 -22.2099991   -3117916.25
 -22.0200005   -3118547.5
 -21.8299999   -3119177.
 -21.6399994   -3119804.25
 -21.4500008   -3120430.5
 -21.2600002   -3121053.75
 -21.0699997   -3121678.75
 -20.8799992   -3122303.75
 -20.6900005   -3122931.5
 -20.5   -3123560.
 -20.3099995   -3124191.25
 -20.1200008   -3124821.25
 -19.9300003   -3125448.5
 -19.7399998   -3126076.75
 -19.5499992   -3126701.5
 -19.3600006   -3127326.75
 -19.1700001   -3127949.
 -18.9799995   -3128572.75
 -18.7900009   -3129195.75
 -18.6000004   -3129821.25
 -18.4099998   -3130449.75
 -18.2199993   -3131079.75
 -18.0300007   -3131709.
 -17.8400002   -3132338.25
 -17.6499996   -3132967.25
 -17.4599991   -3133592.75
 -17.2700005   -3134216.75
 -17.0799999   -3134839.5
 -16.8899994   -3135461.75
 -16.7000008   -3136084.
 -16.5100002   -3136708.25
 -16.3199997   -3137333.75
 -16.1299992   -3137959.75
 -15.9399996   -3138584.75
 -15.75   -3139206.75
 -15.5600004   -3139826.75
 -15.3699999   -3140442.25
 -15.1800003   -3141057.
 -14.9899998   -3141671.75
 -14.8000002   -3142286.
 -14.6099997   -3142902.5
 -14.4200001   -3143521.25
 -14.2299995   -3144140.75
 -14.04   -3144763.75
 -13.8500004   -3145387.25
 -13.6599998   -3146008.5
 -13.4700003   -3146626.
 -13.2799997   -3147241.75
 -13.0900002   -3147855.
 -12.8999996   -3148466.75
 -12.71   -3149080.25
 -12.5200005   -3149695.25
 -12.3299999   -3150313.
 -12.1400003   -3150933.75
 -11.9499998   -3151555.5
 -11.7600002   -3152176.75
 -11.5699997   -3152798.25
 -11.3800001   -3153419.
 -11.1899996   -3154034.
 -11.   -3154646.
 -10.8100004   -3155255.25
 -10.6199999   -3155863.75
 -10.4300003   -3156471.
 -10.2399998   -3157080.5
 -10.0500002   -3157690.5
 -9.85999966   -3158300.75
 -9.67000008   -3158915.75
 -9.47999954   -3159529.
 -9.28999996   -3160141.75
 -9.10000038   -3160753.5
 -8.90999985   -3161363.
 -8.72000027   -3161969.25
 -8.52999973   -3162576.5
 -8.34000015   -3163184.
 -8.14999962   -3163794.
 -7.96000004   -3164407.75
 -7.76999998   -3165022.
 -7.57999992   -3165638.
 -7.38999987   -3166255.5
 -7.19999981   -3166872.5
 -7.01000023   -3167488.75
 -6.82000017   -3168105.
 -6.63000011   -3168720.
 -6.44000006   -3169337.
 -6.25   -3169955.25
 -6.05999994   -3170575.25
 -5.86999989   -3171196.
 -5.67999983   -3171816.75
 -5.48999977   -3172435.
 -5.30000019   -3173048.
 -5.11000013   -3173659.75
 -4.92000008   -3174267.75
 -4.73000002   -3174871.5
 -4.53999996   -3175472.75
 -4.3499999   -3176072.25
 -4.15999985   -3176670.
 -3.97000003   -3177267.75
 -3.77999997   -3177864.25
 -3.58999991   -3178461.5
 -3.4000001   -3179058.5
 -3.21000004   -3179657.
 -3.01999998   -3180258.25
 -2.82999992   -3180861.5
 -2.6400001   -3181468.75
 -2.45000005   -3182077.
 -2.25999999   -3182688.
 -2.06999993   -3183297.
 -1.88   -3183906.5
 -1.69000006   -3184516.25
 -1.5   -3185125.5
 -1.30999994   -3185736.25
 -1.12   -3186347.25
 -0.930000007   -3186955.5
 -0.74000001   -3187563.25
 -0.550000012   -3188167.
 -0.360000014   -3188767.75
 -0.170000002   -3189365.75
 1.999999955E-2   -3189961.5
 0.209999993   -3190555.5
 0.400000006   -3191149.
 0.589999974   -3191741.75
 0.779999971   -3192336.
 0.970000029   -3192930.
 1.15999997   -3193524.25
 1.35000002   -3194116.75
 1.53999996   -3194709.75
 1.73000002   -3195302.25
 1.91999996   -3195895.
 2.1099999   -3196487.5
 2.29999995   -3197082.
 2.49000001   -3197675.75
 2.68000007   -3198269.25
 2.86999989   -3198864.5
 3.05999994   -3199463.75
 3.25   -3200063.75
 3.44000006   -3200666.
 3.63000011   -3201268.25
 3.81999993   -3201873.
 4.01000023   -3202473.75
 4.19999981   -3203073.25
 4.38999987   -3203668.
 4.57999992   -3204260.75
 4.76999998   -3204851.25
 4.96000004   -3205441.25
 5.1500001   -3206034.25
 5.34000015   -3206631.75
 5.53000021   -3207232.5
 5.71999979   -3207833.
 5.90999985   -3208433.
 6.0999999   -3209030.75
 6.28999996   -3209624.25
 6.48000002   -3210212.75
 6.67000008   -3210797.25
 6.86000013   -3211378.5
 7.05000019   -3211962.
 7.23999977   -3212549.25
 7.42999983   -3213141.
 7.61999989   -3213738.
 7.80999994   -3214337.5
 8.   -3214937.5
 8.18999958   -3215534.75
 8.38000011   -3216128.75
 8.56999969   -3216721.25
 8.76000023   -3217311.25
 8.94999981   -3217902.25
 9.14000034   -3218492.25
 9.32999992   -3219086.25
 9.52000046   -3219681.
 9.71000004   -3220275.5
 9.89999962   -3220867.5
 10.0900002   -3221457.25
 10.2799997   -3222044.
 10.4700003   -3222628.
 10.6599998   -3223212.5
 10.8500004   -3223798.75
 11.04   -3224385.5
 11.2299995   -3224974.75
 11.4200001   -3225561.5
 11.6099997   -3226148.75
 11.8000002   -3226734.5
 11.9899998   -3227319.5
 12.1800003   -3227905.25
 12.3699999   -3228491.25
 12.5600004   -3229077.5
 12.75   -3229662.
 12.9399996   -3230247.25
 13.1300001   -3230827.5
 13.3199997   -3231405.5
 13.5100002   -3231979.5
 13.6999998   -3232553.75
 13.8900003   -3233129.5
 14.0799999   -3233707.75
 14.2700005   -3234290.75
 14.46   -3234876.25
 14.6499996   -3235461.5
 14.8400002   -3236044.
 15.0299997   -3236623.75
 15.2200003   -3237203.
 15.4099998   -3237777.
 15.6000004   -3238352.75
 15.79   -3238928.
 15.9799995   -3239504.5
 16.1700001   -3240084.5
 16.3600006   -3240662.75
 16.5499992   -3241241.5
 16.7399998   -3241815.5
 16.9300003   -3242386.25
 17.1200008   -3242956.
 17.3099995   -3243525.25
 17.5   -3244095.5
 17.6900005   -3244667.75
 17.8799992   -3245244.25
 18.0699997   -3245824.25
 18.2600002   -3246408.25
 18.4500008   -3246995.75
 18.6399994   -3247584.25
 18.8299999   -3248174.5
 19.0200005   -3248764.
 19.2099991   -3249350.5
 19.3999996   -3249934.5
 19.5900002   -3250514.75
 19.7800007   -3251094.25
 19.9699993   -3251672.5
 20.1599998   -3252251.
 20.3500004   -3252832.25
 20.5400009   -3253416.75
 20.7299995   -3254003.
 20.9200001   -3254589.25
 21.1100006   -3255174.5
 21.2999992   -3255754.5
 21.4899998   -3256329.
 21.6800003   -3256902.25
 21.8700008   -3257470.5
 22.0599995   -3258041.5
 22.25   -3258613.5
 22.4400005   -3259187.75
 22.6299992   -3259763.25
 22.8199997   -3260339.5
 23.0100002   -3260914.
 23.2000008   -3261486.25
 23.3899994   -3262057.
 23.5799999   -3262629.5
 23.7700005   -3263206.75
 23.9599991   -3263790.
 24.1499996   -3264379.5
 24.3400002   -3264974.5
 24.5300007   -3265572.5
 24.7199993   -3266171.
 24.9099998   -3266764.25
 25.1000004   -3267351.75
 25.2900009   -3267934.25
 25.4799995   -3268511.5
 25.6700001   -3269081.75
 25.8600006   -3269648.
 26.0499992   -3270214.5
 26.2399998   -3270781.25
 26.4300003   -3271345.75
 26.6200008   -3271912.75
 26.8099995   -3272475.5
