 -30.   -2878469.5
 -29.8099995   -2879059.
 -29.6200008   -2879649.75
 -29.4300003   -2880241.
 -29.2399998   -2880832.
 -29.0499992   -2881422.75
 -28.8600006   -2882014.
 -28.6700001   -2882604.75
 -28.4799995   -2883196.25
 -28.2900009   -2883790.25
 -28.1000004   -2884382.
 -27.9099998   -2884973.75
 -27.7199993   -2885564.75
 -27.5300007   -2886154.5
 -27.3400002   -2886744.
 -27.1499996   -2887334.25
 -26.9599991   -2887924.25
 -26.7700005   -2888515.5
 -26.5799999   -2889108.5
 -26.3899994   -2889700.5
 -26.2000008   -2890292.25
 -26.0100002   -2890882.5
 -25.8199997   -2891472.75
 -25.6299992   -2892062.5
 -25.4400005   -2892652.25
 -25.25   -2893243.5
 -25.0599995   -2893835.5
 -24.8700008   -2894427.5
 -24.6800003   -2895018.75
 -24.4899998   -2895610.75
 -24.2999992   -2896200.25
 -24.1100006   -2896787.75
 -23.9200001   -2897375.75
 -23.7299995   -2897961.5
 -23.5400009   -2898547.5
 -23.3500004   -2899131.75
 -23.1599998   -2899716.75
 -22.9699993   -2900301.5
 -22.7800007   -2900888.75
 -22.5900002   -2901476.25
 -22.3999996   -2902067.75
 -22.2099991   -2902657.25
 -22.0200005   -2903248.75
 -21.8299999   -2903841.5
 -21.6399994   -2904436.
 -21.4500008   -2905033.
 -21.2600002   -2905633.
 -21.0699997   -2906234.25
 -20.8799992   -2906840.5
 -20.6900005   -2907446.75
 -20.5   -2908054.5
 -20.3099995   -2908663.5
 -20.1200008   -2909270.25
 -19.9300003   -2909877.
 -19.7399998   -2910484.5
 -19.5499992   -2911093.25
 -19.3600006   -2911708.5
 -19.1700001   -2912325.25
 -18.9799995   -2912943.
 -18.7900009   -2913564.5
 -18.6000004   -2914182.5
 -18.4099998   -2914800.25
 -18.2199993   -2915417.
 -18.0300007   -2916033.
 -17.8400002   -2916647.5
 -17.6499996   -2917261.
 -17.4599991   -2917874.
 -17.2700005   -2918485.25
 -17.0799999   -2919095.5
 -16.8899994   -2919702.
 -16.7000008   -2920304.25
 -16.5100002   -2920904.5
 -16.3199997   -2921501.
 -16.1299992   -2922095.5
 -15.9399996   -2922686.
 -15.75   -2923276.5
 -15.5600004   -2923865.25
 -15.3699999   -2924454.25
 -15.1800003   -2925041.5
 -14.9899998   -2925628.25
 -14.8000002   -2926213.
 -14.6099997   -2926793.5
 -14.4200001   -2927372.75
 -14.2299995   -2927946.75
 -14.04   -2928518.25
 -13.8500004   -2929087.5
 -13.6599998   -2929656.5
 -13.4700003   -2930225.25
 -13.2799997   -2930794.5
 -13.0900002   -2931363.5
 -12.8999996   -2931935.75
 -12.71   -2932508.5
 -12.5200005   -2933080.
 -12.3299999   -2933648.
 -12.1400003   -2934213.75
 -11.9499998   -2934779.5
 -11.7600002   -2935346.25
 -11.5699997   -2935916.25
 -11.3800001   -2936491.25
 -11.1899996   -2937072.25
 -11.   -2937658.
 -10.8100004   -2938244.25
 -10.6199999   -2938830.
 -10.4300003   -2939413.75
 -10.2399998   -2939996.25
 -10.0500002   -2940578.
 -9.85999966   -2941161.5
 -9.67000008   -2941747.25
 -9.47999954   -2942337.
 -9.28999996   -2942932.
 -9.10000038   -2943528.25
 -8.90999985   -2944124.25
 -8.72000027   -2944719.5
 -8.52999973   -2945312.75
 -8.34000015   -2945906.75
 -8.14999962   -2946503.25
 -7.96000004   -2947102.
 -7.76999998   -2947704.
 -7.57999992   -2948307.
 -7.38999987   -2948911.75
 -7.19999981   -2949516.5
 -7.01000023   -2950121.75
 -6.82000017   -2950726.25
 -6.63000011   -2951331.
 -6.44000006   -2951936.5
 -6.25   -2952544.5
 -6.05999994   -2953151.25
 -5.86999989   -2953758.5
 -5.67999983   -2954367.
 -5.48999977   -2954977.75
 -5.30000019   -2955588.75
 -5.11000013   -2956203.5
 -4.92000008   -2956820.5
 -4.73000002   -2957441.
 -4.53999996   -2958063.
 -4.3499999   -2958683.5
 -4.15999985   -2959301.75
 -3.97000003   -2959917.5
 -3.77999997   -2960531.
 -3.58999991   -2961140.5
 -3.4000001   -2961750.75
 -3.21000004   -2962360.75
 -3.01999998   -2962971.
 -2.82999992   -2963581.
 -2.6400001   -2964186.75
 -2.45000005   -2964788.5
 -2.25999999   -2965388.25
 -2.06999993   -2965985.75
 -1.88   -2966585.25
 -1.69000006   -2967188.25
 -1.5   -2967794.75
 -1.30999994   -2968405.75
 -1.12   -2969017.5
 -0.930000007   -2969629.25
 -0.74000001   -2970240.25
 -0.550000012   -2970850.25
 -0.360000014   -2971457.25
 -0.170000002   -2972066.25
 1.999999955E-2   -2972674.
 0.209999993   -2973283.
 0.400000006   -2973890.5
 0.589999974   -2974494.5
 0.779999971   -2975096.25
 0.970000029   -2975693.25
 1.15999997   -2976291.75
 1.35000002   -2976894.
 1.53999996   -2977502.5
 1.73000002   -2978114.5
 1.91999996   -2978730.25
 2.1099999   -2979343.75
 2.29999995   -2979955.5
 2.49000001   -2980564.75
 2.68000007   -2981171.25
 2.86999989   -2981780.
 3.05999994   -2982390.5
 3.25   -2983004.5
 3.44000006   -2983622.25
 3.63000011   -2984241.75
 3.81999993   -2984861.25
 4.01000023   -2985479.25
 4.19999981   -2986098.
 4.38999987   -2986717.75
 4.57999992   -2987341.5
 4.76999998   -2987970.75
 4.96000004   -2988605.75
 5.1500001   -2989241.75
 5.34000015   -2989879.25
 5.53000021   -2990513.25
 5.71999979   -2991143.25
 5.90999985   -2991770.25
 6.0999999   -2992397.
 6.28999996   -2993021.
 6.48000002   -2993648.
 6.67000008   -2994271.
 6.86000013   -2994893.
 7.05000019   -2995511.
 7.23999977   -2996122.5
 7.42999983   -2996730.75
 7.61999989   -2997334.75
 7.80999994   -2997936.
 8.   -2998540.
 8.18999958   -2999145.5
 8.38000011   -2999752.
 8.56999969   -3000362.
 8.76000023   -3000969.25
 8.94999981   -3001577.75
 9.14000034   -3002187.
 9.32999992   -3002798.
 9.52000046   -3003411.75
 9.71000004   -3004026.5
 9.89999962   -3004644.25
 10.0900002   -3005260.5
 10.2799997   -3005873.75
 10.4700003   -3006483.25
 10.6599998   -3007086.25
 10.8500004   -3007686.5
 11.04   -3008287.5
 11.2299995   -3008891.75
 11.4200001   -3009502.5
 11.6099997   -3010116.75
 11.8000002   -3010738.
 11.9899998   -3011357.5
 12.1800003   -3011977.75
 12.3699999   -3012594.5
 12.5600004   -3013210.
 12.75   -3013826.5
 12.9399996   -3014444.75
 13.1300001   -3015063.75
 13.3199997   -3015684.75
 13.5100002   -3016304.25
 13.6999998   -3016924.75
 13.8900003   -3017544.
 14.0799999   -3018163.5
 14.2700005   -3018787.25
 14.46   -3019419.
 14.6499996   -3020057.5
 14.8400002   -3020701.
 15.0299997   -3021345.
 15.2200003   -3021985.75
 15.4099998   -3022624.
 15.6000004   -3023257.
 15.79   -3023889.25
 15.9799995   -3024525.
 16.1700001   -3025164.
 16.3600006   -3025806.
 16.5499992   -3026449.5
 16.7399998   -3027090.5
 16.9300003   -3027725.25
 17.1200008   -3028355.75
 17.3099995   -3028980.25
 17.5   -3029605.
 17.6900005   -3030229.25
 17.8799992   -3030856.75
 18.0699997   -3031485.75
 18.2600002   -3032112.75
 18.4500008   -3032735.
 18.6399994   -3033352.
 18.8299999   -3033965.25
 19.0200005   -3034578.
 19.2099991   -3035195.
 19.3999996   -3035819.75
 19.5900002   -3036451.
 19.7800007   -3037084.
 19.9699993   -3037715.
 20.1599998   -3038339.5
 20.3500004   -3038955.25
 20.5400009   -3039565.75
 20.7299995   -3040174.
 20.9200001   -3040784.5
 21.1100006   -3041400.25
 21.2999992   -3042022.75
 21.4899998   -3042647.5
 21.6800003   -3043272.25
 21.8700008   -3043891.25
 22.0599995   -3044502.
 22.25   -3045107.75
 22.4400005   -3045712.5
 22.6299992   -3046320.25
 22.8199997   -3046931.
 23.0100002   -3047544.
 23.2000008   -3048158.
 23.3899994   -3048766.75
 23.5799999   -3049370.
 23.7700005   -3049968.75
 23.9599991   -3050564.
 24.1499996   -3051164.
 24.3400002   -3051764.75
 24.5300007   -3052371.
 24.7199993   -3052978.75
 24.9099998   -3053583.5
 25.1000004   -3054180.75
 25.2900009   -3054773.25
 25.4799995   -3055358.75
 25.6700001   -3055942.25
 25.8600006   -3056525.75
 26.0499992   -3057112.
 26.2399998   -3057696.75
 26.4300003   -3058280.75
 26.6200008   -3058860.
 26.8099995   -3059434.
