 -30.   8754992.
 -29.8099995   8756773.
 -29.6200008   8758546.
 -29.4300003   8760316.
 -29.2399998   8762088.
 -29.0499992   8763864.
 -28.8600006   8765645.
 -28.6700001   8767430.
 -28.4799995   8769216.
 -28.2900009   8771002.
 -28.1000004   8772784.
 -27.9099998   8774559.
 -27.7199993   8776328.
 -27.5300007   8778091.
 -27.3400002   8779852.
 -27.1499996   8781618.
 -26.9599991   8783388.
 -26.7700005   8785169.
 -26.5799999   8786954.
 -26.3899994   8788744.
 -26.2000008   8790532.
 -26.0100002   8792316.
 -25.8199997   8794091.
 -25.6299992   8795858.
 -25.4400005   8797621.
 -25.25   8799382.
 -25.0599995   8801146.
 -24.8700008   8802913.
 -24.6800003   8804684.
 -24.4899998   8806457.
 -24.2999992   8808233.
 -24.1100006   8810008.
 -23.9200001   8811781.
 -23.7299995   8813551.
 -23.5400009   8815318.
 -23.3500004   8817085.
 -23.1599998   8818850.
 -22.9699993   8820618.
 -22.7800007   8822387.
 -22.5900002   8824158.
 -22.3999996   8825933.
 -22.2099991   8827711.
 -22.0200005   8829490.
 -21.8299999   8831272.
 -21.6399994   8833051.
 -21.4500008   8834828.
 -21.2600002   8836602.
 -21.0699997   8838372.
 -20.8799992   8840139.
 -20.6900005   8841906.
 -20.5   8843674.
 -20.3099995   8845445.
 -20.1200008   8847219.
 -19.9300003   8848999.
 -19.7399998   8850781.
 -19.5499992   8852564.
 -19.3600006   8854346.
 -19.1700001   8856126.
 -18.9799995   8857903.
 -18.7900009   8859680.
 -18.6000004   8861455.
 -18.4099998   8863231.
 -18.2199993   8865008.
 -18.0300007   8866788.
 -17.8400002   8868569.
 -17.6499996   8870356.
 -17.4599991   8872140.
 -17.2700005   8873925.
 -17.0799999   8875707.
 -16.8899994   8877482.
 -16.7000008   8879253.
 -16.5100002   8881019.
 -16.3199997   8882781.
 -16.1299992   8884544.
 -15.9399996   8886308.
 -15.75   8888074.
 -15.5600004   8889840.
 -15.3699999   8891607.
 -15.1800003   8893370.
 -14.9899998   8895128.
 -14.8000002   8896877.
 -14.6099997   8898621.
 -14.4200001   8900359.
 -14.2299995   8902094.
 -14.04   8903830.
 -13.8500004   8905573.
 -13.6599998   8907323.
 -13.4700003   8909081.
 -13.2799997   8910844.
 -13.0900002   8912608.
 -12.8999996   8914366.
 -12.71   8916118.
 -12.5200005   8917861.
 -12.3299999   8919597.
 -12.1400003   8921330.
 -11.9499998   8923067.
 -11.7600002   8924813.
 -11.5699997   8926566.
 -11.3800001   8928331.
 -11.1899996   8930100.
 -11.   8931871.
 -10.8100004   8933635.
 -10.6199999   8935389.
 -10.4300003   8937130.
 -10.2399998   8938862.
 -10.0500002   8940584.
 -9.85999966   8942305.
 -9.67000008   8944031.
 -9.47999954   8945766.
 -9.28999996   8947511.
 -9.10000038   8949263.
 -8.90999985   8951019.
 -8.72000027   8952773.
 -8.52999973   8954521.
 -8.34000015   8956258.
 -8.14999962   8957983.
 -7.96000004   8959704.
 -7.76999998   8961424.
 -7.57999992   8963151.
 -7.38999987   8964889.
 -7.19999981   8966640.
 -7.01000023   8968398.
 -6.82000017   8970158.
 -6.63000011   8971912.
 -6.44000006   8973654.
 -6.25   8975378.
 -6.05999994   8977087.
 -5.86999989   8978785.
 -5.67999983   8980480.
 -5.48999977   8982177.
 -5.30000019   8983884.
 -5.11000013   8985601.
 -4.92000008   8987326.
 -4.73000002   8989055.
 -4.53999996   8990779.
 -4.3499999   8992495.
 -4.15999985   8994192.
 -3.97000003   8995882.
 -3.77999997   8997562.
 -3.58999991   8999246.
 -3.4000001   9000937.
 -3.21000004   9002645.
 -3.01999998   9004370.
 -2.82999992   9006107.
 -2.6400001   9007848.
 -2.45000005   9009583.
 -2.25999999   9011307.
 -2.06999993   9013011.
 -1.88   9014697.
 -1.69000006   9016371.
 -1.5   9018040.
 -1.30999994   9019717.
 -1.12   9021407.
 -0.930000007   9023111.
 -0.74000001   9024829.
 -0.550000012   9026553.
 -0.360000014   9028277.
 -0.170000002   9029987.
 1.999999955E-2   9031682.
 0.209999993   9033362.
 0.400000006   9035032.
 0.589999974   9036700.
 0.779999971   9038376.
 0.970000029   9040064.
 1.15999997   9041771.
 1.35000002   9043493.
 1.53999996   9045224.
 1.73000002   9046952.
 1.91999996   9048669.
 2.1099999   9050367.
 2.29999995   9052043.
 2.49000001   9053704.
 2.68000007   9055361.
 2.86999989   9057026.
 3.05999994   9058710.
 3.25   9060413.
 3.44000006   9062137.
 3.63000011   9063870.
 3.81999993   9065606.
 4.01000023   9067329.
 4.19999981   9069042.
 4.38999987   9070740.
 4.57999992   9072429.
 4.76999998   9074111.
 4.96000004   9075798.
 5.1500001   9077491.
 5.34000015   9079195.
 5.53000021   9080905.
 5.71999979   9082619.
 5.90999985   9084331.
 6.0999999   9086033.
 6.28999996   9087728.
 6.48000002   9089411.
 6.67000008   9091085.
 6.86000013   9092755.
 7.05000019   9094426.
 7.23999977   9096104.
 7.42999983   9097789.
 7.61999989   9099483.
 7.80999994   9101183.
 8.   9102886.
 8.18999958   9104587.
 8.38000011   9106280.
 8.56999969   9107962.
 8.76000023   9109633.
 8.94999981   9111303.
 9.14000034   9112973.
 9.32999992   9114651.
 9.52000046   9116343.
 9.71000004   9118046.
 9.89999962   9119753.
 10.0900002   9121461.
 10.2799997   9123164.
 10.4700003   9124858.
 10.6599998   9126546.
 10.8500004   9128227.
 11.04   9129909.
 11.2299995   9131592.
 11.4200001   9133279.
 11.6099997   9134973.
 11.8000002   9136672.
 11.9899998   9138370.
 12.1800003   9140063.
 12.3699999   9141750.
 12.5600004   9143431.
 12.75   9145103.
 12.9399996   9146768.
 13.1300001   9148428.
 13.3199997   9150087.
 13.5100002   9151748.
 13.6999998   9153415.
 13.8900003   9155092.
 14.0799999   9156774.
 14.2700005   9158461.
 14.46   9160147.
 14.6499996   9161824.
 14.8400002   9163488.
 15.0299997   9165141.
 15.2200003   9166783.
 15.4099998   9168423.
 15.6000004   9170069.
 15.79   9171723.
 15.9799995   9173391.
 16.1700001   9175067.
 16.3600006   9176747.
 16.5499992   9178428.
 16.7399998   9180103.
 16.9300003   9181771.
 17.1200008   9183430.
 17.3099995   9185083.
 17.5   9186735.
 17.6900005   9188384.
 17.8799992   9190038.
 18.0699997   9191695.
 18.2600002   9193360.
 18.4500008   9195028.
 18.6399994   9196701.
 18.8299999   9198372.
 19.0200005   9200043.
 19.2099991   9201708.
 19.3999996   9203363.
 19.5900002   9205009.
 19.7800007   9206649.
 19.9699993   9208289.
 20.1599998   9209934.
 20.3500004   9211587.
 20.5400009   9213253.
 20.7299995   9214928.
 20.9200001   9216605.
 21.1100006   9218280.
 21.2999992   9219942.
 21.4899998   9221593.
 21.6800003   9223236.
 21.8700008   9224872.
 22.0599995   9226510.
 22.25   9228155.
 22.4400005   9229809.
 22.6299992   9231472.
 22.8199997   9233141.
 23.0100002   9234811.
 23.2000008   9236480.
 23.3899994   9238139.
 23.5799999   9239787.
 23.7700005   9241430.
 23.9599991   9243066.
 24.1499996   9244704.
 24.3400002   9246343.
 24.5300007   9247988.
 24.7199993   9249636.
 24.9099998   9251291.
 25.1000004   9252946.
 25.2900009   9254596.
 25.4799995   9256242.
 25.6700001   9257878.
 25.8600006   9259510.
 26.0499992   9261139.
 26.2399998   9262767.
 26.4300003   9264398.
 26.6200008   9266035.
 26.8099995   9267676.
