 -30.   -6073155.
 -29.8099995   -6074405.
 -29.6200008   -6075660.
 -29.4300003   -6076920.
 -29.2399998   -6078178.5
 -29.0499992   -6079432.
 -28.8600006   -6080679.5
 -28.6700001   -6081921.5
 -28.4799995   -6083159.5
 -28.2900009   -6084396.
 -28.1000004   -6085636.
 -27.9099998   -6086882.5
 -27.7199993   -6088136.5
 -27.5300007   -6089398.
 -27.3400002   -6090658.5
 -27.1499996   -6091917.
 -26.9599991   -6093169.
 -26.7700005   -6094411.5
 -26.5799999   -6095645.5
 -26.3899994   -6096873.
 -26.2000008   -6098098.
 -26.0100002   -6099325.
 -25.8199997   -6100557.5
 -25.6299992   -6101798.
 -25.4400005   -6103044.5
 -25.25   -6104293.5
 -25.0599995   -6105541.
 -24.8700008   -6106783.
 -24.6800003   -6108015.5
 -24.4899998   -6109239.5
 -24.2999992   -6110455.
 -24.1100006   -6111668.5
 -23.9200001   -6112883.5
 -23.7299995   -6114106.5
 -23.5400009   -6115338.
 -23.3500004   -6116578.5
 -23.1599998   -6117822.5
 -22.9699993   -6119067.
 -22.7800007   -6120307.5
 -22.5900002   -6121540.
 -22.3999996   -6122762.5
 -22.2099991   -6123977.
 -22.0200005   -6125186.5
 -21.8299999   -6126400.5
 -21.6399994   -6127619.5
 -21.4500008   -6128848.
 -21.2600002   -6130087.5
 -21.0699997   -6131331.5
 -20.8799992   -6132575.5
 -20.6900005   -6133814.
 -20.5   -6135043.5
 -20.3099995   -6136263.5
 -20.1200008   -6137477.5
 -19.9300003   -6138687.5
 -19.7399998   -6139900.
 -19.5499992   -6141123.
 -19.3600006   -6142355.
 -19.1700001   -6143597.5
 -18.9799995   -6144845.
 -18.7900009   -6146092.
 -18.6000004   -6147334.5
 -18.4099998   -6148567.
 -18.2199993   -6149789.5
 -18.0300007   -6151002.5
 -17.8400002   -6152212.5
 -17.6499996   -6153423.
 -17.4599991   -6154640.5
 -17.2700005   -6155867.
 -17.0799999   -6157101.
 -16.8899994   -6158341.
 -16.7000008   -6159581.5
 -16.5100002   -6160817.
 -16.3199997   -6162044.5
 -16.1299992   -6163263.5
 -15.9399996   -6164477.5
 -15.75   -6165686.
 -15.5600004   -6166896.
 -15.3699999   -6168109.5
 -15.1800003   -6169328.5
 -14.9899998   -6170554.5
 -14.8000002   -6171787.5
 -14.6099997   -6173018.5
 -14.4200001   -6174247.5
 -14.2299995   -6175469.5
 -14.04   -6176683.5
 -13.8500004   -6177890.
 -13.6599998   -6179088.5
 -13.4700003   -6180285.
 -13.2799997   -6181482.5
 -13.0900002   -6182687.
 -12.8999996   -6183896.
 -12.71   -6185110.5
 -12.5200005   -6186327.
 -12.3299999   -6187541.5
 -12.1400003   -6188749.
 -11.9499998   -6189950.
 -11.7600002   -6191143.5
 -11.5699997   -6192333.5
 -11.3800001   -6193520.
 -11.1899996   -6194711.
 -11.   -6195907.
 -10.8100004   -6197111.5
 -10.6199999   -6198319.5
 -10.4300003   -6199529.
 -10.2399998   -6200737.
 -10.0500002   -6201939.
 -9.85999966   -6203132.5
 -9.67000008   -6204318.5
 -9.47999954   -6205498.5
 -9.28999996   -6206679.5
 -9.10000038   -6207858.5
 -8.90999985   -6209041.
 -8.72000027   -6210228.5
 -8.52999973   -6211420.
 -8.34000015   -6212611.5
 -8.14999962   -6213799.
 -7.96000004   -6214982.
 -7.76999998   -6216154.
 -7.57999992   -6217320.
 -7.38999987   -6218480.5
 -7.19999981   -6219640.
 -7.01000023   -6220802.
 -6.82000017   -6221970.
 -6.63000011   -6223147.
 -6.44000006   -6224330.5
 -6.25   -6225517.5
 -6.05999994   -6226706.5
 -5.86999989   -6227892.
 -5.67999983   -6229073.
 -5.48999977   -6230245.
 -5.30000019   -6231415.5
 -5.11000013   -6232582.
 -4.92000008   -6233753.
 -4.73000002   -6234930.
 -4.53999996   -6236114.
 -4.3499999   -6237303.
 -4.15999985   -6238498.
 -3.97000003   -6239692.5
 -3.77999997   -6240881.
 -3.58999991   -6242059.5
 -3.4000001   -6243233.5
 -3.21000004   -6244399.
 -3.01999998   -6245561.
 -2.82999992   -6246726.
 -2.6400001   -6247894.5
 -2.45000005   -6249070.
 -2.25999999   -6250247.5
 -2.06999993   -6251431.
 -1.88   -6252610.5
 -1.69000006   -6253787.
 -1.5   -6254957.5
 -1.30999994   -6256127.
 -1.12   -6257293.
 -0.930000007   -6258459.5
 -0.74000001   -6259630.
 -0.550000012   -6260802.5
 -0.360000014   -6261978.
 -0.170000002   -6263154.
 1.999999955E-2   -6264332.
 0.209999993   -6265507.5
 0.400000006   -6266681.5
 0.589999974   -6267853.5
 0.779999971   -6269023.
 0.970000029   -6270189.
 1.15999997   -6271355.
 1.35000002   -6272522.5
 1.53999996   -6273690.
 1.73000002   -6274861.5
 1.91999996   -6276038.
 2.1099999   -6277214.
 2.29999995   -6278390.5
 2.49000001   -6279564.5
 2.68000007   -6280735.5
 2.86999989   -6281899.5
 3.05999994   -6283059.
 3.25   -6284217.5
 3.44000006   -6285371.5
 3.63000011   -6286529.5
 3.81999993   -6287688.5
 4.01000023   -6288849.
 4.19999981   -6290009.
 4.38999987   -6291171.
 4.57999992   -6292331.5
 4.76999998   -6293494.
 4.96000004   -6294660.
 5.1500001   -6295828.5
 5.34000015   -6296999.5
 5.53000021   -6298170.
 5.71999979   -6299337.
 5.90999985   -6300500.5
 6.0999999   -6301661.5
 6.28999996   -6302819.5
 6.48000002   -6303980.
 6.67000008   -6305141.
 6.86000013   -6306304.
 7.05000019   -6307468.5
 7.23999977   -6308631.5
 7.42999983   -6309792.
 7.61999989   -6310954.
 7.80999994   -6312110.5
 8.   -6313268.5
 8.18999958   -6314428.
 8.38000011   -6315586.5
 8.56999969   -6316747.
 8.76000023   -6317912.
 8.94999981   -6319071.
 9.14000034   -6320230.5
 9.32999992   -6321385.
 9.52000046   -6322539.5
 9.71000004   -6323692.5
 9.89999962   -6324846.5
 10.0900002   -6326005.5
 10.2799997   -6327169.
 10.4700003   -6328335.5
 10.6599998   -6329508.
 10.8500004   -6330679.5
 11.04   -6331851.5
 11.2299995   -6333023.
 11.4200001   -6334189.5
 11.6099997   -6335352.
 11.8000002   -6336509.
 11.9899998   -6337664.
 12.1800003   -6338819.5
 12.3699999   -6339979.
 12.5600004   -6341142.
 12.75   -6342307.
 12.9399996   -6343476.5
 13.1300001   -6344644.
 13.3199997   -6345807.
 13.5100002   -6346964.5
 13.6999998   -6348117.
 13.8900003   -6349266.5
 14.0799999   -6350415.5
 14.2700005   -6351566.
 14.46   -6352719.
 14.6499996   -6353876.5
 14.8400002   -6355036.
 15.0299997   -6356196.
 15.2200003   -6357355.
 15.4099998   -6358508.5
 15.6000004   -6359660.5
 15.79   -6360809.5
 15.9799995   -6361952.5
 16.1700001   -6363095.5
 16.3600006   -6364235.5
 16.5499992   -6365380.5
 16.7399998   -6366526.5
 16.9300003   -6367676.
 17.1200008   -6368830.
 17.3099995   -6369987.5
 17.5   -6371147.5
 17.6900005   -6372307.
 17.8799992   -6373464.5
 18.0699997   -6374623.5
 18.2600002   -6375775.5
 18.4500008   -6376924.5
 18.6399994   -6378072.5
 18.8299999   -6379216.
 19.0200005   -6380358.5
 19.2099991   -6381502.
 19.3999996   -6382643.5
 19.5900002   -6383781.5
 19.7800007   -6384920.
 19.9699993   -6386054.5
 20.1599998   -6387189.
 20.3500004   -6388322.5
 20.5400009   -6389456.
 20.7299995   -6390594.
 20.9200001   -6391736.
 21.1100006   -6392880.
 21.2999992   -6394028.5
 21.4899998   -6395177.5
 21.6800003   -6396322.
 21.8700008   -6397459.5
 22.0599995   -6398593.
 22.25   -6399719.
 22.4400005   -6400840.
 22.6299992   -6401965.5
 22.8199997   -6403092.5
 23.0100002   -6404226.5
 23.2000008   -6405361.5
 23.3899994   -6406501.
 23.5799999   -6407639.
 23.7700005   -6408773.
 23.9599991   -6409902.
 24.1499996   -6411028.
 24.3400002   -6412153.5
 24.5300007   -6413280.5
 24.7199993   -6414412.
 24.9099998   -6415546.
 25.1000004   -6416686.
 25.2900009   -6417827.5
 25.4799995   -6418969.5
 25.6700001   -6420112.
 25.8600006   -6421251.
 26.0499992   -6422385.
 26.2399998   -6423516.5
 26.4300003   -6424647.
 26.6200008   -6425774.
 26.8099995   -6426902.5
