 -30.   8518314.
 -29.8099995   8520101.
 -29.6200008   8521926.
 -29.4300003   8523772.
 -29.2399998   8525614.
 -29.0499992   8527436.
 -28.8600006   8529226.
 -28.6700001   8530989.
 -28.4799995   8532731.
 -28.2900009   8534474.
 -28.1000004   8536236.
 -27.9099998   8538029.
 -27.7199993   8539858.
 -27.5300007   8541717.
 -27.3400002   8543589.
 -27.1499996   8545454.
 -26.9599991   8547293.
 -26.7700005   8549092.
 -26.5799999   8550848.
 -26.3899994   8552574.
 -26.2000008   8554284.
 -26.0100002   8556005.
 -25.8199997   8557756.
 -25.6299992   8559542.
 -25.4400005   8561365.
 -25.25   8563209.
 -25.0599995   8565058.
 -24.8700008   8566890.
 -24.6800003   8568688.
 -24.4899998   8570448.
 -24.2999992   8572175.
 -24.1100006   8573882.
 -23.9200001   8575594.
 -23.7299995   8577327.
 -23.5400009   8579096.
 -23.3500004   8580896.
 -23.1599998   8582722.
 -22.9699993   8584556.
 -22.7800007   8586377.
 -22.5900002   8588171.
 -22.3999996   8589926.
 -22.2099991   8591647.
 -22.0200005   8593343.
 -21.8299999   8595032.
 -21.6399994   8596735.
 -21.4500008   8598468.
 -21.2600002   8600232.
 -21.0699997   8602025.
 -20.8799992   8603832.
 -20.6900005   8605632.
 -20.5   8607411.
 -20.3099995   8609158.
 -20.1200008   8610872.
 -19.9300003   8612558.
 -19.7399998   8614228.
 -19.5499992   8615904.
 -19.3600006   8617603.
 -19.1700001   8619331.
 -18.9799995   8621090.
 -18.7900009   8622874.
 -18.6000004   8624661.
 -18.4099998   8626433.
 -18.2199993   8628179.
 -18.0300007   8629894.
 -17.8400002   8631581.
 -17.6499996   8633250.
 -17.4599991   8634917.
 -17.2700005   8636597.
 -17.0799999   8638305.
 -16.8899994   8640040.
 -16.7000008   8641805.
 -16.5100002   8643579.
 -16.3199997   8645344.
 -16.1299992   8647083.
 -15.9399996   8648790.
 -15.75   8650464.
 -15.5600004   8652116.
 -15.3699999   8653761.
 -15.1800003   8655413.
 -14.9899998   8657083.
 -14.8000002   8658777.
 -14.6099997   8660500.
 -14.4200001   8662239.
 -14.2299995   8663981.
 -14.04   8665711.
 -13.8500004   8667415.
 -13.6599998   8669087.
 -13.4700003   8670736.
 -13.2799997   8672372.
 -13.0900002   8674009.
 -12.8999996   8675661.
 -12.71   8677341.
 -12.5200005   8679046.
 -12.3299999   8680773.
 -12.1400003   8682510.
 -11.9499998   8684245.
 -11.7600002   8685962.
 -11.5699997   8687651.
 -11.3800001   8689309.
 -11.1899996   8690948.
 -11.   8692584.
 -10.8100004   8694231.
 -10.6199999   8695902.
 -10.4300003   8697601.
 -10.2399998   8699322.
 -10.0500002   8701063.
 -9.85999966   8702809.
 -9.67000008   8704543.
 -9.47999954   8706256.
 -9.28999996   8707943.
 -9.10000038   8709603.
 -8.90999985   8711252.
 -8.72000027   8712904.
 -8.52999973   8714574.
 -8.34000015   8716272.
 -8.14999962   8717996.
 -7.96000004   8719736.
 -7.76999998   8721486.
 -7.57999992   8723229.
 -7.38999987   8724954.
 -7.19999981   8726657.
 -7.01000023   8728333.
 -6.82000017   8729993.
 -6.63000011   8731651.
 -6.44000006   8733318.
 -6.25   8735012.
 -6.05999994   8736733.
 -5.86999989   8738478.
 -5.67999983   8740233.
 -5.48999977   8741989.
 -5.30000019   8743734.
 -5.11000013   8745456.
 -4.92000008   8747155.
 -4.73000002   8748835.
 -4.53999996   8750502.
 -4.3499999   8752168.
 -4.15999985   8753842.
 -3.97000003   8755537.
 -3.77999997   8757255.
 -3.58999991   8758987.
 -3.4000001   8760727.
 -3.21000004   8762459.
 -3.01999998   8764175.
 -2.82999992   8765867.
 -2.6400001   8767535.
 -2.45000005   8769188.
 -2.25999999   8770831.
 -2.06999993   8772479.
 -1.88   8774144.
 -1.69000006   8775834.
 -1.5   8777548.
 -1.30999994   8779281.
 -1.12   8781015.
 -0.930000007   8782739.
 -0.74000001   8784436.
 -0.550000012   8786110.
 -0.360000014   8787762.
 -0.170000002   8789404.
 1.999999955E-2   8791044.
 0.209999993   8792695.
 0.400000006   8794367.
 0.589999974   8796060.
 0.779999971   8797773.
 0.970000029   8799492.
 1.15999997   8801206.
 1.35000002   8802905.
 1.53999996   8804580.
 1.73000002   8806232.
 1.91999996   8807871.
 2.1099999   8809507.
 2.29999995   8811153.
 2.49000001   8812816.
 2.68000007   8814499.
 2.86999989   8816198.
 3.05999994   8817908.
 3.25   8819618.
 3.44000006   8821315.
 3.63000011   8822992.
 3.81999993   8824644.
 4.01000023   8826274.
 4.19999981   8827894.
 4.38999987   8829512.
 4.57999992   8831142.
 4.76999998   8832788.
 4.96000004   8834457.
 5.1500001   8836143.
 5.34000015   8837838.
 5.53000021   8839530.
 5.71999979   8841210.
 5.90999985   8842871.
 6.0999999   8844507.
 6.28999996   8846134.
 6.48000002   8847754.
 6.67000008   8849382.
 6.86000013   8851030.
 7.05000019   8852702.
 7.23999977   8854391.
 7.42999983   8856090.
 7.61999989   8857787.
 7.80999994   8859467.
 8.   8861123.
 8.18999958   8862755.
 8.38000011   8864364.
 8.56999969   8865959.
 8.76000023   8867557.
 8.94999981   8869166.
 9.14000034   8870795.
 9.32999992   8872452.
 9.52000046   8874125.
 9.71000004   8875806.
 9.89999962   8877484.
 10.0900002   8879150.
 10.2799997   8880798.
 10.4700003   8882427.
 10.6599998   8884046.
 10.8500004   8885662.
 11.04   8887287.
 11.2299995   8888928.
 11.4200001   8890589.
 11.6099997   8892269.
 11.8000002   8893956.
 11.9899998   8895642.
 12.1800003   8897318.
 12.3699999   8898968.
 12.5600004   8900597.
 12.75   8902204.
 12.9399996   8903799.
 13.1300001   8905392.
 13.3199997   8906993.
 13.5100002   8908611.
 13.6999998   8910247.
 13.8900003   8911898.
 14.0799999   8913557.
 14.2700005   8915211.
 14.46   8916847.
 14.6499996   8918465.
 14.8400002   8920062.
 15.0299997   8921646.
 15.2200003   8923229.
 15.4099998   8924824.
 15.6000004   8926441.
 15.79   8928083.
 15.9799995   8929749.
 16.1700001   8931427.
 16.3600006   8933106.
 16.5499992   8934773.
 16.7399998   8936421.
 16.9300003   8938049.
 17.1200008   8939661.
 17.3099995   8941268.
 17.5   8942882.
 17.6900005   8944511.
 17.8799992   8946157.
 18.0699997   8947822.
 18.2600002   8949497.
 18.4500008   8951174.
 18.6399994   8952846.
 18.8299999   8954499.
 19.0200005   8956132.
 19.2099991   8957748.
 19.3999996   8959346.
 19.5900002   8960939.
 19.7800007   8962532.
 19.9699993   8964131.
 20.1599998   8965746.
 20.3500004   8967373.
 20.5400009   8969013.
 20.7299995   8970655.
 20.9200001   8972289.
 21.1100006   8973906.
 21.2999992   8975508.
 21.4899998   8977093.
 21.6800003   8978669.
 21.8700008   8980251.
 22.0599995   8981847.
 22.25   8983463.
 22.4400005   8985100.
 22.6299992   8986752.
 22.8199997   8988411.
 23.0100002   8990059.
 23.2000008   8991691.
 23.3899994   8993299.
 23.5799999   8994889.
 23.7700005   8996464.
 23.9599991   8998041.
 24.1499996   8999632.
 24.3400002   9001239.
 24.5300007   9002865.
 24.7199993   9004501.
 24.9099998   9006140.
 25.1000004   9007769.
 25.2900009   9009381.
 25.4799995   9010974.
 25.6700001   9012547.
 25.8600006   9014108.
 26.0499992   9015670.
 26.2399998   9017239.
 26.4300003   9018826.
 26.6200008   9020431.
 26.8099995   9022050.
