 -30.   -7017955.
 -29.8099995   -7019330.5
 -29.6200008   -7020691.
 -29.4300003   -7022080.
 -29.2399998   -7023507.
 -29.0499992   -7024938.
 -28.8600006   -7026330.
 -28.6700001   -7027682.
 -28.4799995   -7029024.
 -28.2900009   -7030401.5
 -28.1000004   -7031824.
 -27.9099998   -7033262.5
 -27.7199993   -7034665.5
 -27.5300007   -7036022.
 -27.3400002   -7037358.5
 -27.1499996   -7038724.
 -26.9599991   -7040137.5
 -26.7700005   -7041571.5
 -26.5799999   -7042978.5
 -26.3899994   -7044339.
 -26.2000008   -7045677.
 -26.0100002   -7047039.5
 -25.8199997   -7048445.5
 -25.6299992   -7049876.
 -25.4400005   -7051286.5
 -25.25   -7052656.
 -25.0599995   -7054001.5
 -24.8700008   -7055366.
 -24.6800003   -7056777.5
 -24.4899998   -7058222.
 -24.2999992   -7059653.
 -24.1100006   -7061045.
 -23.9200001   -7062407.5
 -23.7299995   -7063780.
 -23.5400009   -7065191.
 -23.3500004   -7066630.5
 -23.1599998   -7068065.
 -22.9699993   -7069465.5
 -22.7800007   -7070837.
 -22.5900002   -7072218.
 -22.3999996   -7073638.
 -22.2099991   -7075092.
 -22.0200005   -7076545.5
 -21.8299999   -7077972.
 -21.6399994   -7079365.5
 -21.4500008   -7080758.5
 -21.2600002   -7082184.
 -21.0699997   -7083640.
 -20.8799992   -7085100.5
 -20.6900005   -7086536.5
 -20.5   -7087940.
 -20.3099995   -7089339.
 -20.1200008   -7090763.5
 -19.9300003   -7092221.
 -19.7399998   -7093686.
 -19.5499992   -7095127.
 -19.3600006   -7096534.5
 -19.1700001   -7097928.5
 -18.9799995   -7099347.5
 -18.7900009   -7100797.5
 -18.6000004   -7102261.
 -18.4099998   -7103706.
 -18.2199993   -7105121.
 -18.0300007   -7106523.
 -17.8400002   -7107942.5
 -17.6499996   -7109391.
 -17.4599991   -7110853.5
 -17.2700005   -7112298.
 -17.0799999   -7113713.
 -16.8899994   -7115108.
 -16.7000008   -7116511.5
 -16.5100002   -7117939.5
 -16.3199997   -7119384.
 -16.1299992   -7120821.
 -15.9399996   -7122236.
 -15.75   -7123632.5
 -15.5600004   -7125034.
 -15.3699999   -7126456.5
 -15.1800003   -7127894.
 -14.9899998   -7129329.5
 -14.8000002   -7130741.5
 -14.6099997   -7132132.5
 -14.4200001   -7133524.
 -14.2299995   -7134933.5
 -14.04   -7136361.
 -13.8500004   -7137791.
 -13.6599998   -7139206.
 -13.4700003   -7140604.
 -13.2799997   -7141998.5
 -13.0900002   -7143406.5
 -12.8999996   -7144830.
 -12.71   -7146256.
 -12.5200005   -7147668.
 -12.3299999   -7149064.5
 -12.1400003   -7150457.5
 -11.9499998   -7151866.5
 -11.7600002   -7153295.
 -11.5699997   -7154730.5
 -11.3800001   -7156158.
 -11.1899996   -7157570.
 -11.   -7158976.
 -10.8100004   -7160389.5
 -10.6199999   -7161817.
 -10.4300003   -7163250.5
 -10.2399998   -7164676.5
 -10.0500002   -7166089.
 -9.85999966   -7167496.
 -9.67000008   -7168908.5
 -9.47999954   -7170338.5
 -9.28999996   -7171777.5
 -9.10000038   -7173211.5
 -8.90999985   -7174634.
 -8.72000027   -7176050.5
 -8.52999973   -7177471.5
 -8.34000015   -7178901.5
 -8.14999962   -7180342.5
 -7.96000004   -7181777.
 -7.76999998   -7183200.5
 -7.57999992   -7184618.5
 -7.38999987   -7186039.5
 -7.19999981   -7187469.5
 -7.01000023   -7188912.5
 -6.82000017   -7190354.
 -6.63000011   -7191787.
 -6.44000006   -7193219.5
 -6.25   -7194655.
 -6.05999994   -7196107.
 -5.86999989   -7197575.
 -5.67999983   -7199047.5
 -5.48999977   -7200512.5
 -5.30000019   -7201963.5
 -5.11000013   -7203411.
 -4.92000008   -7204863.
 -4.73000002   -7206319.
 -4.53999996   -7207772.5
 -4.3499999   -7209218.
 -4.15999985   -7210655.
 -3.97000003   -7212088.
 -3.77999997   -7213529.5
 -3.58999991   -7214983.
 -3.4000001   -7216443.
 -3.21000004   -7217899.5
 -3.01999998   -7219348.5
 -2.82999992   -7220796.
 -2.6400001   -7222251.5
 -2.45000005   -7223719.5
 -2.25999999   -7225196.
 -2.06999993   -7226669.5
 -1.88   -7228135.
 -1.69000006   -7229597.
 -1.5   -7231067.5
 -1.30999994   -7232549.
 -1.12   -7234041.
 -0.930000007   -7235526.5
 -0.74000001   -7237001.5
 -0.550000012   -7238464.
 -0.360000014   -7239928.5
 -0.170000002   -7241398.5
 1.999999955E-2   -7242873.5
 0.209999993   -7244344.
 0.400000006   -7245800.
 0.589999974   -7247248.
 0.779999971   -7248698.
 0.970000029   -7250161.
 1.15999997   -7251630.5
 1.35000002   -7253098.
 1.53999996   -7254550.5
 1.73000002   -7255993.
 1.91999996   -7257435.
 2.1099999   -7258887.5
 2.29999995   -7260351.
 2.49000001   -7261811.5
 2.68000007   -7263268.
 2.86999989   -7264713.5
 3.05999994   -7266161.5
 3.25   -7267621.5
 3.44000006   -7269091.5
 3.63000011   -7270561.5
 3.81999993   -7272019.
 4.01000023   -7273465.5
 4.19999981   -7274907.
 4.38999987   -7276352.5
 4.57999992   -7277807.
 4.76999998   -7279256.5
 4.96000004   -7280696.5
 5.1500001   -7282123.
 5.34000015   -7283546.
 5.53000021   -7284975.5
 5.71999979   -7286414.5
 5.90999985   -7287855.5
 6.0999999   -7289287.
 6.28999996   -7290707.5
 6.48000002   -7292124.
 6.67000008   -7293547.
 6.86000013   -7294986.5
 7.05000019   -7296433.
 7.23999977   -7297881.5
 7.42999983   -7299320.5
 7.61999989   -7300755.5
 7.80999994   -7302194.5
 8.   -7303644.5
 8.18999958   -7305098.
 8.38000011   -7306548.
 8.56999969   -7307990.
 8.76000023   -7309421.5
 8.94999981   -7310858.5
 9.14000034   -7312305.5
 9.32999992   -7313760.
 9.52000046   -7315211.5
 9.71000004   -7316651.5
 9.89999962   -7318084.5
 10.0900002   -7319514.5
 10.2799997   -7320950.5
 10.4700003   -7322389.
 10.6599998   -7323827.
 10.8500004   -7325257.5
 11.04   -7326679.5
 11.2299995   -7328102.
 11.4200001   -7329531.5
 11.6099997   -7330970.
 11.8000002   -7332410.5
 11.9899998   -7333845.
 12.1800003   -7335270.5
 12.3699999   -7336695.
 12.5600004   -7338127.
 12.75   -7339569.5
 12.9399996   -7341015.5
 13.1300001   -7342461.
 13.3199997   -7343900.5
 13.5100002   -7345341.5
 13.6999998   -7346790.
 13.8900003   -7348247.
 14.0799999   -7349711.
 14.2700005   -7351169.5
 14.46   -7352622.
 14.6499996   -7354065.5
 14.8400002   -7355511.5
 15.0299997   -7356964.
 15.2200003   -7358420.
 15.4099998   -7359875.5
 15.6000004   -7361329.5
 15.79   -7362779.
 15.9799995   -7364233.5
 16.1700001   -7365696.5
 16.3600006   -7367163.5
 16.5499992   -7368626.5
 16.7399998   -7370081.
 16.9300003   -7371527.5
 17.1200008   -7372970.5
 17.3099995   -7374419.
 17.5   -7375868.
 17.6900005   -7377316.5
 17.8799992   -7378761.5
 18.0699997   -7380199.5
 18.2600002   -7381639.5
 18.4500008   -7383088.5
 18.6399994   -7384546.
 18.8299999   -7386007.
 19.0200005   -7387466.
 19.2099991   -7388920.
 19.3999996   -7390371.
 19.5900002   -7391829.5
 19.7800007   -7393296.5
 19.9699993   -7394767.
 20.1599998   -7396228.5
 20.3500004   -7397683.5
 20.5400009   -7399132.
 20.7299995   -7400584.
 20.9200001   -7402041.5
 21.1100006   -7403501.
 21.2999992   -7404948.5
 21.4899998   -7406385.5
 21.6800003   -7407814.
 21.8700008   -7409245.
 22.0599995   -7410683.5
 22.25   -7412127.5
 22.4400005   -7413566.5
 22.6299992   -7414997.5
 22.8199997   -7416426.
 23.0100002   -7417861.5
 23.2000008   -7419304.5
 23.3899994   -7420755.
 23.5799999   -7422202.
 23.7700005   -7423638.
 23.9599991   -7425064.5
 24.1499996   -7426493.
 24.3400002   -7427927.
 24.5300007   -7429368.5
 24.7199993   -7430807.
 24.9099998   -7432240.5
 25.1000004   -7433670.
 25.2900009   -7435103.
 25.4799995   -7436547.5
 25.6700001   -7437999.
 25.8600006   -7439447.5
 26.0499992   -7440887.5
 26.2399998   -7442321.5
 26.4300003   -7443758.
 26.6200008   -7445205.
 26.8099995   -7446657.
