 -30.   73148.9063
 -29.8099995   73152.2578
 -29.6200008   73145.4609
 -29.4300003   73135.4688
 -29.2399998   73126.7188
 -29.0499992   73123.6094
 -28.8600006   73128.4844
 -28.6700001   73139.5859
 -28.4799995   73156.0703
 -28.2900009   73171.4141
 -28.1000004   73182.1406
 -27.9099998   73185.0234
 -27.7199993   73181.1094
 -27.5300007   73171.4609
 -27.3400002   73161.5547
 -27.1499996   73155.3828
 -26.9599991   73156.7266
 -26.7700005   73166.1797
 -26.5799999   73188.7031
 -26.3899994   73218.2266
 -26.2000008   73250.0547
 -26.0100002   73278.9063
 -25.8199997   73297.2813
 -25.6299992   73309.6875
 -25.4400005   73312.6641
 -25.25   73313.9766
 -25.0599995   73316.8125
 -24.8700008   73325.4531
 -24.6800003   73341.6094
 -24.4899998   73366.8203
 -24.2999992   73396.8516
 -24.1100006   73430.4688
 -23.9200001   73460.5938
 -23.7299995   73481.4688
 -23.5400009   73495.6406
 -23.3500004   73503.2969
 -23.1599998   73506.7813
 -22.9699993   73513.3281
 -22.7800007   73524.6563
 -22.5900002   73541.3047
 -22.3999996   73565.4297
 -22.2099991   73592.2031
 -22.0200005   73617.9063
 -21.8299999   73643.1172
 -21.6399994   73659.6953
 -21.4500008   73669.4766
 -21.2600002   73672.4766
 -21.0699997   73670.7734
 -20.8799992   73670.2188
 -20.6900005   73674.2188
 -20.5   73683.5313
 -20.3099995   73696.4297
 -20.1200008   73710.4922
 -19.9300003   73725.9922
 -19.7399998   73739.4063
 -19.5499992   73749.125
 -19.3600006   73755.2891
 -19.1700001   73756.5
 -18.9799995   73754.9141
 -18.7900009   73751.5625
 -18.6000004   73750.5078
 -18.4099998   73752.5859
 -18.2199993   73761.3828
 -18.0300007   73774.3125
 -17.8400002   73788.6953
 -17.6499996   73802.5703
 -17.4599991   73818.125
 -17.2700005   73825.9688
 -17.0799999   73831.9766
 -16.8899994   73835.2188
 -16.7000008   73837.1563
 -16.5100002   73840.1797
 -16.3199997   73849.3047
 -16.1299992   73867.3828
 -15.9399996   73888.5234
 -15.75   73911.8906
 -15.5600004   73933.1406
 -15.3699999   73951.2422
 -15.1800003   73962.4609
 -14.9899998   73971.6172
 -14.8000002   73979.4844
 -14.6099997   73991.0313
 -14.4200001   74006.4531
 -14.2299995   74025.375
 -14.04   74046.0781
 -13.8500004   74071.3984
 -13.6599998   74098.6406
 -13.4700003   74121.8984
 -13.2799997   74142.3047
 -13.0900002   74158.8672
 -12.8999996   74176.5391
 -12.71   74196.7813
 -12.5200005   74220.3125
 -12.3299999   74244.4375
 -12.1400003   74274.8828
 -11.9499998   74302.2656
 -11.7600002   74329.7266
 -11.5699997   74354.0156
 -11.3800001   74375.0469
 -11.1899996   74393.2344
 -11.   74411.4766
 -10.8100004   74427.7109
 -10.6199999   74447.2734
 -10.4300003   74466.8984
 -10.2399998   74490.8359
 -10.0500002   74515.7734
 -9.85999966   74540.5781
 -9.67000008   74562.5859
 -9.47999954   74581.4766
 -9.28999996   74595.1875
 -9.10000038   74606.4844
 -8.90999985   74617.9063
 -8.72000027   74628.2578
 -8.52999973   74638.1406
 -8.34000015   74650.2266
 -8.14999962   74664.5859
 -7.96000004   74680.4141
 -7.76999998   74697.5156
 -7.57999992   74715.3203
 -7.38999987   74735.7031
 -7.19999981   74752.9375
 -7.01000023   74766.0469
 -6.82000017   74776.2891
 -6.63000011   74782.8047
 -6.44000006   74787.0156
 -6.25   74789.5547
 -6.05999994   74791.9531
 -5.86999989   74795.9219
 -5.67999983   74801.4688
 -5.48999977   74806.9297
 -5.30000019   74812.5547
 -5.11000013   74814.1406
 -4.92000008   74811.9531
 -4.73000002   74806.9453
 -4.53999996   74802.6172
 -4.3499999   74799.5313
 -4.15999985   74799.6016
 -3.97000003   74804.2813
 -3.77999997   74810.6875
 -3.58999991   74814.4453
 -3.4000001   74814.1797
 -3.21000004   74811.4844
 -3.01999998   74806.3359
 -2.82999992   74800.7344
 -2.6400001   74795.5938
 -2.45000005   74795.4922
 -2.25999999   74801.3906
 -2.06999993   74811.2734
 -1.88   74822.9766
 -1.69000006   74832.4766
 -1.5   74838.7031
 -1.30999994   74840.5313
 -1.12   74840.2891
 -0.930000007   74840.9453
 -0.74000001   74844.3516
 -0.550000012   74849.4063
 -0.360000014   74856.7656
 -0.170000002   74864.8281
 1.999999955E-2   74871.6797
 0.209999993   74878.6563
 0.400000006   74885.2266
 0.589999974   74891.5938
 0.779999971   74900.5781
 0.970000029   74908.9453
 1.15999997   74916.875
 1.35000002   74923.5
 1.53999996   74927.1172
 1.73000002   74929.0313
 1.91999996   74928.9063
 2.1099999   74927.4844
 2.29999995   74927.3281
 2.49000001   74931.7813
 2.68000007   74942.9453
 2.86999989   74957.7344
 3.05999994   74976.7578
 3.25   74994.7031
 3.44000006   75008.4922
 3.63000011   75021.4375
 3.81999993   75029.9375
 4.01000023   75040.0391
 4.19999981   75052.5
 4.38999987   75070.6016
 4.57999992   75095.5391
 4.76999998   75125.0078
 4.96000004   75158.3828
 5.1500001   75187.9844
 5.34000015   75213.0391
 5.53000021   75226.2578
 5.71999979   75235.3281
 5.90999985   75237.7266
 6.0999999   75240.2891
 6.28999996   75248.3828
 6.48000002   75263.3594
 6.67000008   75286.3828
 6.86000013   75314.0859
 7.05000019   75343.3359
 7.23999977   75370.6875
 7.42999983   75389.7422
 7.61999989   75402.0625
 7.80999994   75405.2734
 8.   75407.0781
 8.18999958   75409.9375
 8.38000011   75418.7344
 8.56999969   75434.3203
 8.76000023   75457.4844
 8.94999981   75485.5469
 9.14000034   75515.75
 9.32999992   75541.7734
 9.52000046   75563.5625
 9.71000004   75580.1484
 9.89999962   75588.1875
 10.0900002   75590.8516
 10.2799997   75593.5234
 10.4700003   75597.6875
 10.6599998   75608.3906
 10.8500004   75625.7578
 11.04   75651.8125
 11.2299995   75683.6641
 11.4200001   75718.4453
 11.6099997   75751.9297
 11.8000002   75778.25
 11.9899998   75796.8672
 12.1800003   75806.1016
 12.3699999   75808.4531
 12.5600004   75809.1094
 12.75   75813.8125
 12.9399996   75826.
 13.1300001   75846.6563
 13.3199997   75873.6016
 13.5100002   75904.8906
 13.6999998   75934.7891
 13.8900003   75958.2344
 14.0799999   75974.3047
 14.2700005   75980.8984
 14.46   75984.1953
 14.6499996   75989.3594
 14.8400002   75999.5156
 15.0299997   76018.3281
 15.2200003   76045.7031
 15.4099998   76080.6484
 15.6000004   76119.2578
 15.79   76155.3438
 15.9799995   76186.1406
 16.1700001   76209.2578
 16.3600006   76227.0859
 16.5499992   76240.2813
 16.7399998   76252.3125
 16.9300003   76264.2578
 17.1200008   76283.2266
 17.3099995   76308.1641
 17.5   76339.1484
 17.6900005   76374.0078
 17.8799992   76405.9766
 18.0699997   76434.3047
 18.2600002   76452.6016
 18.4500008   76463.6797
 18.6399994   76467.2109
 18.8299999   76464.2422
 19.0200005   76462.3281
 19.2099991   76462.6328
 19.3999996   76472.2734
 19.5900002   76489.3672
 19.7800007   76519.5938
 19.9699993   76553.8125
 20.1599998   76589.5156
 20.3500004   76619.7422
 20.5400009   76641.5625
 20.7299995   76654.0781
 20.9200001   76657.0938
 21.1100006   76657.7344
 21.2999992   76656.8984
 21.4899998   76663.0156
 21.6800003   76679.7891
 21.8700008   76703.0781
 22.0599995   76735.4219
 22.25   76770.4219
 22.4400005   76801.2422
 22.6299992   76823.0625
 22.8199997   76835.7656
 23.0100002   76841.9922
 23.2000008   76845.8828
 23.3899994   76850.4219
 23.5799999   76865.2969
 23.7700005   76887.1094
 23.9599991   76919.5156
 24.1499996   76958.75
 24.3400002   76995.6719
 24.5300007   77026.7188
 24.7199993   77047.2891
 24.9099998   77054.8906
 25.1000004   77053.9297
 25.2900009   77050.3281
 25.4799995   77049.3359
 25.6700001   77056.8125
 25.8600006   77073.9844
 26.0499992   77100.3672
 26.2399998   77135.5859
 26.4300003   77170.9609
 26.6200008   77205.8047
 26.8099995   77235.4297
