 -30.00000000   2609031.750
 -29.80999947   2609584.000
 -29.62000084   2610148.000
 -29.43000031   2610721.250
 -29.23999977   2611291.500
 -29.04999924   2611853.750
 -28.86000061   2612404.000
 -28.67000008   2612941.000
 -28.47999954   2613471.500
 -28.29000092   2614005.000
 -28.10000038   2614542.500
 -27.90999985   2615093.500
 -27.71999931   2615655.000
 -27.53000069   2616224.750
 -27.34000015   2616799.750
 -27.14999962   2617373.500
 -26.95999908   2617939.750
 -26.77000046   2618495.250
 -26.57999992   2619037.750
 -26.38999939   2619572.000
 -26.20000076   2620101.250
 -26.01000023   2620632.250
 -25.81999969   2621171.000
 -25.62999916   2621719.500
 -25.44000053   2622280.250
 -25.25000000   2622848.000
 -25.05999947   2623419.000
 -24.87000084   2623988.500
 -24.68000031   2624547.750
 -24.48999977   2625095.500
 -24.29999924   2625630.500
 -24.11000061   2626157.000
 -23.92000008   2626680.500
 -23.72999954   2627207.500
 -23.54000092   2627743.500
 -23.35000038   2628293.750
 -23.15999985   2628852.250
 -22.96999931   2629414.750
 -22.78000069   2629976.750
 -22.59000015   2630531.500
 -22.39999962   2631072.250
 -22.20999908   2631598.750
 -22.02000046   2632114.500
 -21.82999992   2632621.250
 -21.63999939   2633128.750
 -21.45000076   2633642.250
 -21.26000023   2634167.250
 -21.06999969   2634704.250
 -20.87999916   2635250.000
 -20.69000053   2635801.000
 -20.50000000   2636349.500
 -20.30999947   2636890.500
 -20.12000084   2637420.750
 -19.93000031   2637941.000
 -19.73999977   2638454.000
 -19.54999924   2638967.250
 -19.36000061   2639483.250
 -19.17000008   2640009.750
 -18.97999954   2640550.500
 -18.79000092   2641098.750
 -18.60000038   2641659.750
 -18.40999985   2642219.250
 -18.21999931   2642775.500
 -18.03000069   2643322.500
 -17.84000015   2643858.000
 -17.64999962   2644383.250
 -17.45999908   2644902.000
 -17.27000046   2645417.750
 -17.07999992   2645937.500
 -16.88999939   2646467.250
 -16.70000076   2647006.000
 -16.51000023   2647554.000
 -16.31999969   2648104.500
 -16.12999916   2648655.250
 -15.93999958   2649203.250
 -15.75000000   2649743.750
 -15.56000042   2650274.500
 -15.36999989   2650797.750
 -15.18000031   2651317.250
 -14.98999977   2651838.750
 -14.80000019   2652367.250
 -14.60999966   2652905.250
 -14.42000008   2653451.000
 -14.22999954   2653999.500
 -14.03999996   2654542.000
 -13.85000038   2655078.250
 -13.65999985   2655603.000
 -13.47000027   2656113.750
 -13.27999973   2656617.000
 -13.09000015   2657114.500
 -12.89999962   2657616.250
 -12.71000004   2658128.500
 -12.52000046   2658653.250
 -12.32999992   2659192.250
 -12.14000034   2659739.000
 -11.94999981   2660285.750
 -11.76000023   2660825.750
 -11.56999969   2661355.500
 -11.38000011   2661876.250
 -11.18999958   2662387.750
 -11.00000000   2662897.750
 -10.81000042   2663413.000
 -10.61999989   2663935.000
 -10.43000031   2664466.250
 -10.23999977   2665006.250
 -10.05000019   2665548.750
 -9.859999657   2666089.500
 -9.670000076   2666618.500
 -9.479999542   2667137.500
 -9.289999962   2667646.500
 -9.100000381   2668155.000
 -8.909999847   2668665.250
 -8.720000267   2669178.500
 -8.529999733   2669703.250
 -8.340000153   2670234.500
 -8.149999619   2670774.750
 -7.960000038   2671315.250
 -7.769999981   2671854.000
 -7.579999924   2672388.500
 -7.389999866   2672913.000
 -7.199999809   2673432.750
 -7.010000229   2673949.750
 -6.820000172   2674470.750
 -6.630000114   2674992.750
 -6.440000057   2675519.000
 -6.250000000   2676048.500
 -6.059999943   2676581.000
 -5.869999886   2677115.500
 -5.679999828   2677654.500
 -5.489999771   2678192.250
 -5.300000191   2678729.750
 -5.110000134   2679265.500
 -4.920000076   2679794.250
 -4.730000019   2680316.500
 -4.539999962   2680832.000
 -4.349999905   2681343.250
 -4.159999847   2681850.750
 -3.970000029   2682360.250
 -3.779999971   2682873.750
 -3.589999914   2683397.750
 -3.400000095   2683928.000
 -3.210000038   2684465.750
 -3.019999981   2685000.250
 -2.829999924   2685528.500
 -2.640000105   2686047.250
 -2.450000048   2686556.500
 -2.259999990   2687062.000
 -2.069999933   2687568.500
 -1.879999995   2688081.500
 -1.690000057   2688602.500
 -1.500000000   2689132.250
 -1.309999943   2689667.500
 -1.120000005   2690206.000
 -0.9300000072   2690743.000
 -0.7400000095   2691273.750
 -0.5500000119   2691796.500
 -0.3600000143   2692311.500
 -0.1700000018   2692818.750
 0.1999999955E-01   2693323.250
 0.2099999934   2693830.250
 0.4000000060   2694344.500
 0.5899999738   2694867.500
 0.7799999714   2695395.250
 0.9700000286   2695930.000
 1.159999967   2696467.000
 1.350000024   2697005.750
 1.539999962   2697536.000
 1.730000019   2698056.750
 1.919999957   2698563.500
 2.109999895   2699062.750
 2.299999952   2699561.250
 2.490000010   2700061.250
 2.680000067   2700570.000
 2.869999886   2701087.250
 3.059999943   2701611.500
 3.250000000   2702140.250
 3.440000057   2702668.000
 3.630000114   2703192.500
 3.819999933   2703708.000
 4.010000229   2704218.000
 4.199999809   2704721.500
 4.389999866   2705225.000
 4.579999924   2705734.500
 4.769999981   2706247.750
 4.960000038   2706770.250
 5.150000095   2707296.250
 5.340000153   2707822.750
 5.530000210   2708347.500
 5.719999790   2708870.000
 5.909999847   2709390.250
 6.099999905   2709914.000
 6.289999962   2710435.750
 6.480000019   2710956.750
 6.670000076   2711477.750
 6.860000134   2711997.750
 7.050000191   2712518.250
 7.239999771   2713039.500
 7.429999828   2713562.750
 7.619999886   2714087.750
 7.809999943   2714613.250
 8.000000000   2715141.500
 8.189999580   2715667.750
 8.380000114   2716191.500
 8.569999695   2716706.500
 8.760000229   2717216.750
 8.949999809   2717722.500
 9.140000343   2718226.250
 9.329999924   2718738.000
 9.520000458   2719260.000
 9.710000038   2719793.000
 9.899999619   2720335.500
 10.09000015   2720878.000
 10.27999973   2721419.250
 10.47000027   2721953.750
 10.65999985   2722476.500
 10.85000038   2722993.250
 11.03999996   2723504.000
 11.22999954   2724016.250
 11.42000008   2724536.250
 11.60999966   2725067.750
 11.80000019   2725609.500
 11.98999977   2726157.000
 12.18000031   2726703.250
 12.36999989   2727239.500
 12.56000042   2727762.000
 12.75000000   2728274.250
 12.93999958   2728777.500
 13.13000011   2729276.750
 13.31999969   2729778.750
 13.51000023   2730288.000
 13.69999981   2730806.250
 13.89000034   2731336.000
 14.07999992   2731870.000
 14.27000046   2732406.750
 14.46000004   2732936.500
 14.64999962   2733453.750
 14.84000015   2733956.000
 15.02999973   2734451.000
 15.22000027   2734940.750
 15.40999985   2735433.000
 15.60000038   2735933.250
 15.78999996   2736443.250
 15.97999954   2736966.250
 16.17000008   2737497.000
 16.36000061   2738035.750
 16.54999924   2738572.500
 16.73999977   2739102.000
 16.93000031   2739620.250
 17.12000084   2740128.250
 17.30999947   2740627.500
 17.50000000   2741124.500
 17.69000053   2741625.250
 17.87999916   2742134.000
 18.06999969   2742653.500
 18.26000023   2743181.000
 18.45000076   2743713.750
 18.63999939   2744248.750
 18.82999992   2744780.250
 19.02000046   2745304.500
 19.20999908   2745820.500
 19.39999962   2746329.750
 19.59000015   2746834.750
 19.78000069   2747343.000
 19.96999931   2747857.500
 20.15999985   2748379.500
 20.35000038   2748906.500
 20.54000092   2749434.250
 20.72999954   2749958.750
 20.92000008   2750480.750
 21.11000061   2750997.500
 21.29999924   2751506.750
 21.48999977   2752013.500
 21.68000031   2752515.250
 21.87000084   2753014.250
 22.05999947   2753513.750
 22.25000000   2754018.250
 22.44000053   2754523.500
 22.62999916   2755030.250
 22.81999969   2755539.750
 23.01000023   2756049.250
 23.20000076   2756562.250
 23.38999939   2757076.750
 23.57999992   2757593.250
 23.77000046   2758110.250
 23.95999908   2758623.750
 24.14999962   2759135.750
 24.34000015   2759647.250
 24.53000069   2760158.250
 24.71999931   2760674.750
 24.90999985   2761195.750
 25.10000038   2761719.000
 25.29000092   2762239.250
 25.47999954   2762759.750
 25.67000008   2763276.500
 25.86000061   2763789.500
 26.04999924   2764301.750
 26.23999977   2764814.250
 26.43000031   2765322.500
 26.62000084   2765834.250
 26.80999947   2766352.000
