 -30.00000000   10104563.00
 -29.80999947   10106648.00
 -29.62000084   10108753.00
 -29.43000031   10110866.00
 -29.23999977   10112975.00
 -29.04999924   10115073.00
 -28.86000061   10117156.00
 -28.67000008   10119225.00
 -28.47999954   10121284.00
 -28.29000092   10123342.00
 -28.10000038   10125408.00
 -27.90999985   10127486.00
 -27.71999931   10129581.00
 -27.53000069   10131687.00
 -27.34000015   10133797.00
 -27.14999962   10135905.00
 -26.95999908   10138001.00
 -26.77000046   10140079.00
 -26.57999992   10142142.00
 -26.38999939   10144193.00
 -26.20000076   10146240.00
 -26.01000023   10148289.00
 -25.81999969   10150347.00
 -25.62999916   10152419.00
 -25.44000053   10154503.00
 -25.25000000   10156595.00
 -25.05999947   10158689.00
 -24.87000084   10160775.00
 -24.68000031   10162853.00
 -24.48999977   10164917.00
 -24.29999924   10166967.00
 -24.11000061   10169009.00
 -23.92000008   10171050.00
 -23.72999954   10173093.00
 -23.54000092   10175149.00
 -23.35000038   10177217.00
 -23.15999985   10179295.00
 -22.96999931   10181379.00
 -22.78000069   10183465.00
 -22.59000015   10185543.00
 -22.39999962   10187612.00
 -22.20999908   10189665.00
 -22.02000046   10191711.00
 -21.82999992   10193751.00
 -21.63999939   10195793.00
 -21.45000076   10197843.00
 -21.26000023   10199905.00
 -21.06999969   10201980.00
 -20.87999916   10204064.00
 -20.69000053   10206149.00
 -20.50000000   10208230.00
 -20.30999947   10210298.00
 -20.12000084   10212352.00
 -19.93000031   10214393.00
 -19.73999977   10216430.00
 -19.54999924   10218463.00
 -19.36000061   10220501.00
 -19.17000008   10222548.00
 -18.97999954   10224605.00
 -18.79000092   10226672.00
 -18.60000038   10228741.00
 -18.40999985   10230808.00
 -18.21999931   10232865.00
 -18.03000069   10234910.00
 -17.84000015   10236941.00
 -17.64999962   10238963.00
 -17.45999908   10240985.00
 -17.27000046   10243010.00
 -17.07999992   10245043.00
 -16.88999939   10247085.00
 -16.70000076   10249139.00
 -16.51000023   10251195.00
 -16.31999969   10253251.00
 -16.12999916   10255301.00
 -15.93999958   10257340.00
 -15.75000000   10259367.00
 -15.56000042   10261382.00
 -15.36999989   10263393.00
 -15.18000031   10265402.00
 -14.98999977   10267412.00
 -14.80000019   10269429.00
 -14.60999966   10271450.00
 -14.42000008   10273477.00
 -14.22999954   10275508.00
 -14.03999996   10277537.00
 -13.85000038   10279560.00
 -13.65999985   10281575.00
 -13.47000027   10283581.00
 -13.27999973   10285582.00
 -13.09000015   10287579.00
 -12.89999962   10289577.00
 -12.71000004   10291582.00
 -12.52000046   10293592.00
 -12.32999992   10295611.00
 -12.14000034   10297635.00
 -11.94999981   10299666.00
 -11.76000023   10301695.00
 -11.56999969   10303723.00
 -11.38000011   10305741.00
 -11.18999958   10307748.00
 -11.00000000   10309745.00
 -10.81000042   10311738.00
 -10.61999989   10313729.00
 -10.43000031   10315724.00
 -10.23999977   10317725.00
 -10.05000019   10319735.00
 -9.859999657   10321748.00
 -9.670000076   10323765.00
 -9.479999542   10325777.00
 -9.289999962   10327782.00
 -9.100000381   10329774.00
 -8.909999847   10331753.00
 -8.720000267   10333722.00
 -8.529999733   10335686.00
 -8.340000153   10337649.00
 -8.149999619   10339622.00
 -7.960000038   10341607.00
 -7.769999981   10343604.00
 -7.579999924   10345608.00
 -7.389999866   10347619.00
 -7.199999809   10349621.00
 -7.010000229   10351614.00
 -6.820000172   10353598.00
 -6.630000114   10355570.00
 -6.440000057   10357533.00
 -6.250000000   10359497.00
 -6.059999943   10361472.00
 -5.869999886   10363459.00
 -5.679999828   10365465.00
 -5.489999771   10367480.00
 -5.300000191   10369499.00
 -5.110000134   10371514.00
 -4.920000076   10373518.00
 -4.730000019   10375506.00
 -4.539999962   10377483.00
 -4.349999905   10379449.00
 -4.159999847   10381413.00
 -3.970000029   10383383.00
 -3.779999971   10385360.00
 -3.589999914   10387351.00
 -3.400000095   10389353.00
 -3.210000038   10391358.00
 -3.019999981   10393361.00
 -2.829999924   10395354.00
 -2.640000105   10397335.00
 -2.450000048   10399304.00
 -2.259999990   10401264.00
 -2.069999933   10403219.00
 -1.879999995   10405175.00
 -1.690000057   10407138.00
 -1.500000000   10409115.00
 -1.309999943   10411103.00
 -1.120000005   10413101.00
 -0.9300000072   10415108.00
 -0.7400000095   10417108.00
 -0.5500000119   10419103.00
 -0.3600000143   10421084.00
 -0.1700000018   10423056.00
 0.1999999955E-01   10425018.00
 0.2099999934   10426975.00
 0.4000000060   10428936.00
 0.5899999738   10430904.00
 0.7799999714   10432881.00
 0.9700000286   10434867.00
 1.159999967   10436860.00
 1.350000024   10438856.00
 1.539999962   10440844.00
 1.730000019   10442815.00
 1.919999957   10444772.00
 2.109999895   10446716.00
 2.299999952   10448650.00
 2.490000010   10450585.00
 2.680000067   10452525.00
 2.869999886   10454479.00
 3.059999943   10456446.00
 3.250000000   10458423.00
 3.440000057   10460404.00
 3.630000114   10462385.00
 3.819999933   10464353.00
 4.010000229   10466309.00
 4.199999809   10468245.00
 4.389999866   10470176.00
 4.579999924   10472102.00
 4.769999981   10474039.00
 4.960000038   10475986.00
 5.150000095   10477948.00
 5.340000153   10479923.00
 5.530000210   10481910.00
 5.719999790   10483897.00
 5.909999847   10485875.00
 6.099999905   10487842.00
 6.289999962   10489791.00
 6.480000019   10491724.00
 6.670000076   10493653.00
 6.860000134   10495580.00
 7.050000191   10497516.00
 7.239999771   10499466.00
 7.429999828   10501431.00
 7.619999886   10503405.00
 7.809999943   10505384.00
 8.000000000   10507355.00
 8.189999580   10509321.00
 8.380000114   10511268.00
 8.569999695   10513199.00
 8.760000229   10515119.00
 8.949999809   10517030.00
 9.140000343   10518946.00
 9.329999924   10520877.00
 9.520000458   10522824.00
 9.710000038   10524789.00
 9.899999619   10526764.00
 10.09000015   10528740.00
 10.27999973   10530713.00
 10.47000027   10532671.00
 10.65999985   10534615.00
 10.85000038   10536547.00
 11.03999996   10538470.00
 11.22999954   10540396.00
 11.42000008   10542326.00
 11.60999966   10544276.00
 11.80000019   10546240.00
 11.98999977   10548215.00
 12.18000031   10550192.00
 12.36999989   10552160.00
 12.56000042   10554115.00
 12.75000000   10556051.00
 12.93999958   10557970.00
 13.13000011   10559877.00
 13.31999969   10561780.00
 13.51000023   10563684.00
 13.69999981   10565595.00
 13.89000034   10567518.00
 14.07999992   10569451.00
 14.27000046   10571389.00
 14.46000004   10573327.00
 14.64999962   10575257.00
 14.84000015   10577174.00
 15.02999973   10579081.00
 15.22000027   10580975.00
 15.40999985   10582865.00
 15.60000038   10584756.00
 15.78999996   10586654.00
 15.97999954   10588565.00
 16.17000008   10590493.00
 16.36000061   10592433.00
 16.54999924   10594383.00
 16.73999977   10596332.00
 16.93000031   10598273.00
 17.12000084   10600198.00
 17.30999947   10602108.00
 17.50000000   10604011.00
 17.69000053   10605910.00
 17.87999916   10607817.00
 18.06999969   10609737.00
 18.26000023   10611669.00
 18.45000076   10613614.00
 18.63999939   10615562.00
 18.82999992   10617506.00
 19.02000046   10619434.00
 19.20999908   10621344.00
 19.39999962   10623233.00
 19.59000015   10625108.00
 19.78000069   10626981.00
 19.96999931   10628860.00
 20.15999985   10630750.00
 20.35000038   10632658.00
 20.54000092   10634578.00
 20.72999954   10636506.00
 20.92000008   10638432.00
 21.11000061   10640349.00
 21.29999924   10642254.00
 21.48999977   10644142.00
 21.68000031   10646016.00
 21.87000084   10647883.00
 22.05999947   10649752.00
 22.25000000   10651630.00
 22.44000053   10653521.00
 22.62999916   10655428.00
 22.81999969   10657345.00
 23.01000023   10659268.00
 23.20000076   10661187.00
 23.38999939   10663093.00
 23.57999992   10664983.00
 23.77000046   10666856.00
 23.95999908   10668718.00
 24.14999962   10670571.00
 24.34000015   10672429.00
 24.53000069   10674303.00
 24.71999931   10676193.00
 24.90999985   10678098.00
 25.10000038   10680014.00
 25.29000092   10681928.00
 25.47999954   10683830.00
 25.67000008   10685715.00
 25.86000061   10687583.00
 26.04999924   10689434.00
 26.23999977   10691275.00
 26.43000031   10693118.00
 26.62000084   10694972.00
 26.80999947   10696845.00
