 -30.00000000   -3592971.750
 -29.80999947   -3593627.500
 -29.62000084   -3594265.500
 -29.43000031   -3594945.750
 -29.23999977   -3595682.000
 -29.04999924   -3596420.500
 -28.86000061   -3597105.750
 -28.67000008   -3597730.000
 -28.47999954   -3598344.750
 -28.29000092   -3599017.750
 -28.10000038   -3599755.000
 -27.90999985   -3600509.250
 -27.71999931   -3601215.250
 -27.53000069   -3601857.250
 -27.34000015   -3602479.750
 -27.14999962   -3603145.500
 -26.95999908   -3603877.250
 -26.77000046   -3604633.250
 -26.57999992   -3605351.750
 -26.38999939   -3606002.500
 -26.20000076   -3606625.000
 -26.01000023   -3607280.500
 -25.81999969   -3608005.750
 -25.62999916   -3608765.250
 -25.44000053   -3609495.500
 -25.25000000   -3610162.250
 -25.05999947   -3610795.750
 -24.87000084   -3611455.750
 -24.68000031   -3612185.250
 -24.48999977   -3612956.000
 -24.29999924   -3613706.750
 -24.11000061   -3614397.250
 -23.92000008   -3615043.750
 -23.72999954   -3615707.750
 -23.54000092   -3616436.000
 -23.35000038   -3617210.250
 -23.15999985   -3617971.250
 -22.96999931   -3618671.500
 -22.78000069   -3619324.000
 -22.59000015   -3619984.250
 -22.39999962   -3620699.250
 -22.20999908   -3621469.000
 -22.02000046   -3622234.750
 -21.82999992   -3622947.000
 -21.63999939   -3623609.750
 -21.45000076   -3624274.250
 -21.26000023   -3624997.000
 -21.06999969   -3625776.500
 -20.87999916   -3626564.000
 -20.69000053   -3627295.500
 -20.50000000   -3627968.750
 -20.30999947   -3628628.750
 -20.12000084   -3629330.750
 -19.93000031   -3630087.750
 -19.73999977   -3630856.000
 -19.54999924   -3631581.500
 -19.36000061   -3632249.500
 -19.17000008   -3632905.500
 -18.97999954   -3633602.500
 -18.79000092   -3634365.000
 -18.60000038   -3635152.750
 -18.40999985   -3635908.750
 -18.21999931   -3636606.250
 -18.03000069   -3637278.500
 -17.84000015   -3637985.250
 -17.64999962   -3638748.000
 -17.45999908   -3639536.500
 -17.27000046   -3640292.750
 -17.07999992   -3640989.000
 -16.88999939   -3641648.500
 -16.70000076   -3642327.500
 -16.51000023   -3643064.500
 -16.31999969   -3643838.250
 -16.12999916   -3644590.000
 -15.93999958   -3645290.750
 -15.75000000   -3645956.250
 -15.56000042   -3646638.000
 -15.36999989   -3647376.250
 -15.18000031   -3648155.750
 -14.98999977   -3648925.250
 -14.80000019   -3649642.750
 -14.60999966   -3650313.000
 -14.42000008   -3650984.750
 -14.22999954   -3651701.500
 -14.03999996   -3652464.750
 -13.85000038   -3653228.250
 -13.65999985   -3653944.250
 -13.47000027   -3654610.500
 -13.27999973   -3655269.750
 -13.09000015   -3655969.750
 -12.89999962   -3656717.750
 -12.71000004   -3657476.250
 -12.52000046   -3658195.000
 -12.32999992   -3658861.500
 -12.14000034   -3659513.500
 -11.94999981   -3660201.500
 -11.76000023   -3660941.750
 -11.56999969   -3661702.000
 -11.38000011   -3662436.250
 -11.18999958   -3663121.500
 -11.00000000   -3663779.750
 -10.81000042   -3664463.000
 -10.61999989   -3665196.750
 -10.43000031   -3665959.250
 -10.23999977   -3666700.750
 -10.05000019   -3667389.250
 -9.859999657   -3668045.500
 -9.670000076   -3668723.250
 -9.479999542   -3669454.750
 -9.289999962   -3670227.750
 -9.100000381   -3670997.500
 -8.909999847   -3671722.250
 -8.720000267   -3672407.250
 -8.529999733   -3673101.250
 -8.340000153   -3673845.250
 -8.149999619   -3674629.750
 -7.960000038   -3675410.500
 -7.769999981   -3676137.500
 -7.579999924   -3676815.250
 -7.389999866   -3677488.500
 -7.199999809   -3678204.000
 -7.010000229   -3678968.250
 -6.820000172   -3679740.750
 -6.630000114   -3680473.000
 -6.440000057   -3681159.750
 -6.250000000   -3681838.500
 -6.059999943   -3682566.750
 -5.869999886   -3683352.000
 -5.679999828   -3684155.250
 -5.489999771   -3684922.750
 -5.300000191   -3685634.750
 -5.110000134   -3686325.500
 -4.920000076   -3687044.000
 -4.730000019   -3687814.500
 -4.539999962   -3688607.250
 -4.349999905   -3689365.250
 -4.159999847   -3690067.500
 -3.970000029   -3690738.000
 -3.779999971   -3691429.500
 -3.589999914   -3692175.000
 -3.400000095   -3692950.000
 -3.210000038   -3693699.250
 -3.019999981   -3694393.000
 -2.829999924   -3695048.000
 -2.640000105   -3695723.000
 -2.450000048   -3696457.750
 -2.259999990   -3697237.250
 -2.069999933   -3698009.000
 -1.879999995   -3698729.250
 -1.690000057   -3699409.750
 -1.500000000   -3700100.500
 -1.309999943   -3700845.250
 -1.120000005   -3701636.750
 -0.9300000072   -3702424.250
 -0.7400000095   -3703161.000
 -0.5500000119   -3703844.500
 -0.3600000143   -3704531.500
 -0.1700000018   -3705267.000
 0.1999999955E-01   -3706056.750
 0.2099999934   -3706853.500
 0.4000000060   -3707603.500
 0.5899999738   -3708303.000
 0.7799999714   -3708995.000
 0.9700000286   -3709730.750
 1.159999967   -3710521.500
 1.350000024   -3711326.750
 1.539999962   -3712090.250
 1.730000019   -3712793.000
 1.919999957   -3713472.750
 2.109999895   -3714189.000
 2.299999952   -3714958.750
 2.490000010   -3715743.250
 2.680000067   -3716489.500
 2.869999886   -3717171.750
 3.059999943   -3717827.750
 3.250000000   -3718516.500
 3.440000057   -3719269.500
 3.630000114   -3720056.750
 3.819999933   -3720819.250
 4.010000229   -3721529.000
 4.199999809   -3722208.250
 4.389999866   -3722915.750
 4.579999924   -3723681.250
 4.769999981   -3724479.250
 4.960000038   -3725254.750
 5.150000095   -3725972.000
 5.340000153   -3726649.750
 5.530000210   -3727344.250
 5.719999790   -3728098.250
 5.909999847   -3728889.250
 6.099999905   -3729667.500
 6.289999962   -3730393.750
 6.480000019   -3731079.750
 6.670000076   -3731780.000
 6.860000134   -3732534.750
 7.050000191   -3733334.500
 7.239999771   -3734131.500
 7.429999828   -3734876.500
 7.619999886   -3735576.500
 7.809999943   -3736282.250
 8.000000000   -3737037.750
 8.189999580   -3737839.250
 8.380000114   -3738645.000
 8.569999695   -3739398.750
 8.760000229   -3740101.500
 8.949999809   -3740791.750
 9.140000343   -3741522.750
 9.329999924   -3742298.250
 9.520000458   -3743083.000
 9.710000038   -3743825.500
 9.899999619   -3744516.750
 10.09000015   -3745195.250
 10.27999973   -3745912.250
 10.47000027   -3746686.750
 10.65999985   -3747480.500
 10.85000038   -3748243.500
 11.03999996   -3748955.500
 11.22999954   -3749643.500
 11.42000008   -3750357.000
 11.60999966   -3751118.000
 11.80000019   -3751902.500
 11.98999977   -3752661.750
 12.18000031   -3753374.500
 12.36999989   -3754056.500
 12.56000042   -3754762.000
 12.75000000   -3755511.000
 12.93999958   -3756291.000
 13.13000011   -3757061.500
 13.31999969   -3757786.250
 13.51000023   -3758479.250
 13.69999981   -3759180.750
 13.89000034   -3759928.500
 14.07999992   -3760709.500
 14.27000046   -3761493.000
 14.46000004   -3762236.000
 14.64999962   -3762940.250
 14.84000015   -3763639.250
 15.02999973   -3764374.750
 15.22000027   -3765145.250
 15.40999985   -3765926.000
 15.60000038   -3766674.500
 15.78999996   -3767384.000
 15.97999954   -3768087.500
 16.17000008   -3768825.750
 16.36000061   -3769608.500
 16.54999924   -3770411.250
 16.73999977   -3771187.250
 16.93000031   -3771921.750
 17.12000084   -3772636.750
 17.30999947   -3773370.500
 17.50000000   -3774144.750
 17.69000053   -3774936.500
 17.87999916   -3775708.500
 18.06999969   -3776436.250
 18.26000023   -3777130.000
 18.45000076   -3777836.750
 18.63999939   -3778587.500
 18.82999992   -3779364.250
 19.02000046   -3780134.500
 19.20999908   -3780864.750
 19.39999962   -3781565.750
 19.59000015   -3782280.250
 19.78000069   -3783043.250
 19.96999931   -3783845.000
 20.15999985   -3784644.000
 20.35000038   -3785402.500
 20.54000092   -3786121.750
 20.72999954   -3786839.250
 20.92000008   -3787597.500
 21.11000061   -3788395.250
 21.29999924   -3789195.500
 21.48999977   -3789957.250
 21.68000031   -3790672.750
 21.87000084   -3791377.750
 22.05999947   -3792114.250
 22.25000000   -3792894.250
 22.44000053   -3793686.000
 22.62999916   -3794443.000
 22.81999969   -3795152.500
 23.01000023   -3795848.250
 23.20000076   -3796577.750
 23.38999939   -3797365.250
 23.57999992   -3798177.500
 23.77000046   -3798963.500
 23.95999908   -3799696.000
 24.14999962   -3800405.500
 24.34000015   -3801138.750
 24.53000069   -3801924.500
 24.71999931   -3802736.000
 24.90999985   -3803521.500
 25.10000038   -3804255.250
 25.29000092   -3804959.000
 25.47999954   -3805682.250
 25.67000008   -3806466.000
 25.86000061   -3807288.500
 26.04999924   -3808098.500
 26.23999977   -3808852.000
 26.43000031   -3809564.750
 26.62000084   -3810287.500
 26.80999947   -3811062.000
