 -30.00000000   -4436798.500
 -29.80999947   -4437689.000
 -29.62000084   -4438565.500
 -29.43000031   -4439443.500
 -29.23999977   -4440331.000
 -29.04999924   -4441232.500
 -28.86000061   -4442146.500
 -28.67000008   -4443068.500
 -28.47999954   -4443989.500
 -28.29000092   -4444902.500
 -28.10000038   -4445810.000
 -27.90999985   -4446713.000
 -27.71999931   -4447622.000
 -27.53000069   -4448541.000
 -27.34000015   -4449479.000
 -27.14999962   -4450430.500
 -26.95999908   -4451390.500
 -26.77000046   -4452349.000
 -26.57999992   -4453292.000
 -26.38999939   -4454214.000
 -26.20000076   -4455117.000
 -26.01000023   -4456005.500
 -25.81999969   -4456889.500
 -25.62999916   -4457780.500
 -25.44000053   -4458687.000
 -25.25000000   -4459613.000
 -25.05999947   -4460555.000
 -24.87000084   -4461503.000
 -24.68000031   -4462444.500
 -24.48999977   -4463367.000
 -24.29999924   -4464265.000
 -24.11000061   -4465141.000
 -23.92000008   -4466008.000
 -23.72999954   -4466877.000
 -23.54000092   -4467767.000
 -23.35000038   -4468680.000
 -23.15999985   -4469622.000
 -22.96999931   -4470581.000
 -22.78000069   -4471544.500
 -22.59000015   -4472496.000
 -22.39999962   -4473428.000
 -22.20999908   -4474333.000
 -22.02000046   -4475217.000
 -21.82999992   -4476091.500
 -21.63999939   -4476968.500
 -21.45000076   -4477865.500
 -21.26000023   -4478782.500
 -21.06999969   -4479720.500
 -20.87999916   -4480669.000
 -20.69000053   -4481613.500
 -20.50000000   -4482544.500
 -20.30999947   -4483450.500
 -20.12000084   -4484332.000
 -19.93000031   -4485190.500
 -19.73999977   -4486039.000
 -19.54999924   -4486888.000
 -19.36000061   -4487750.500
 -19.17000008   -4488636.000
 -18.97999954   -4489541.500
 -18.79000092   -4490462.000
 -18.60000038   -4491383.500
 -18.40999985   -4492293.000
 -18.21999931   -4493181.500
 -18.03000069   -4494047.000
 -17.84000015   -4494894.000
 -17.64999962   -4495737.500
 -17.45999908   -4496584.500
 -17.27000046   -4497453.500
 -17.07999992   -4498348.500
 -16.88999939   -4499268.000
 -16.70000076   -4500202.000
 -16.51000023   -4501139.000
 -16.31999969   -4502066.500
 -16.12999916   -4502973.500
 -15.93999958   -4503861.500
 -15.75000000   -4504732.500
 -15.56000042   -4505601.500
 -15.36999989   -4506473.500
 -15.18000031   -4507356.500
 -14.98999977   -4508258.000
 -14.80000019   -4509173.000
 -14.60999966   -4510102.000
 -14.42000008   -4511034.000
 -14.22999954   -4511963.000
 -14.03999996   -4512880.000
 -13.85000038   -4513782.500
 -13.65999985   -4514671.500
 -13.47000027   -4515548.000
 -13.27999973   -4516422.000
 -13.09000015   -4517297.000
 -12.89999962   -4518176.000
 -12.71000004   -4519063.500
 -12.52000046   -4519957.500
 -12.32999992   -4520855.500
 -12.14000034   -4521749.500
 -11.94999981   -4522639.000
 -11.76000023   -4523524.000
 -11.56999969   -4524400.000
 -11.38000011   -4525277.000
 -11.18999958   -4526156.000
 -11.00000000   -4527041.000
 -10.81000042   -4527933.000
 -10.61999989   -4528829.000
 -10.43000031   -4529729.000
 -10.23999977   -4530626.500
 -10.05000019   -4531523.000
 -9.859999657   -4532415.500
 -9.670000076   -4533307.500
 -9.479999542   -4534195.500
 -9.289999962   -4535084.000
 -9.100000381   -4535969.000
 -8.909999847   -4536850.500
 -8.720000267   -4537730.500
 -8.529999733   -4538607.000
 -8.340000153   -4539479.500
 -8.149999619   -4540351.500
 -7.960000038   -4541223.500
 -7.769999981   -4542101.500
 -7.579999924   -4542984.500
 -7.389999866   -4543869.500
 -7.199999809   -4544756.500
 -7.010000229   -4545637.000
 -6.820000172   -4546512.000
 -6.630000114   -4547375.500
 -6.440000057   -4548239.500
 -6.250000000   -4549104.500
 -6.059999943   -4549979.000
 -5.869999886   -4550866.000
 -5.679999828   -4551765.000
 -5.489999771   -4552675.000
 -5.300000191   -4553585.000
 -5.110000134   -4554490.000
 -4.920000076   -4555380.500
 -4.730000019   -4556256.500
 -4.539999962   -4557118.000
 -4.349999905   -4557974.500
 -4.159999847   -4558836.000
 -3.970000029   -4559712.500
 -3.779999971   -4560606.500
 -3.589999914   -4561517.500
 -3.400000095   -4562437.000
 -3.210000038   -4563356.000
 -3.019999981   -4564265.500
 -2.829999924   -4565157.000
 -2.640000105   -4566035.000
 -2.450000048   -4566899.500
 -2.259999990   -4567760.000
 -2.069999933   -4568625.500
 -1.879999995   -4569501.500
 -1.690000057   -4570390.500
 -1.500000000   -4571286.000
 -1.309999943   -4572181.500
 -1.120000005   -4573068.000
 -0.9300000072   -4573947.000
 -0.7400000095   -4574819.500
 -0.5500000119   -4575689.000
 -0.3600000143   -4576563.500
 -0.1700000018   -4577442.000
 0.1999999955E-01   -4578325.000
 0.2099999934   -4579213.000
 0.4000000060   -4580101.500
 0.5899999738   -4580988.000
 0.7799999714   -4581876.000
 0.9700000286   -4582766.500
 1.159999967   -4583659.000
 1.350000024   -4584556.000
 1.539999962   -4585453.000
 1.730000019   -4586350.000
 1.919999957   -4587240.000
 2.109999895   -4588122.500
 2.299999952   -4588998.500
 2.490000010   -4589872.500
 2.680000067   -4590749.500
 2.869999886   -4591633.500
 3.059999943   -4592525.000
 3.250000000   -4593427.000
 3.440000057   -4594334.000
 3.630000114   -4595240.000
 3.819999933   -4596146.000
 4.010000229   -4597045.000
 4.199999809   -4597941.000
 4.389999866   -4598831.000
 4.579999924   -4599718.000
 4.769999981   -4600602.500
 4.960000038   -4601486.000
 5.150000095   -4602370.000
 5.340000153   -4603252.500
 5.530000210   -4604137.000
 5.719999790   -4605021.500
 5.909999847   -4605908.000
 6.099999905   -4606791.000
 6.289999962   -4607670.500
 6.480000019   -4608546.000
 6.670000076   -4609414.000
 6.860000134   -4610276.500
 7.050000191   -4611137.000
 7.239999771   -4611999.000
 7.429999828   -4612864.000
 7.619999886   -4613738.000
 7.809999943   -4614617.500
 8.000000000   -4615497.000
 8.189999580   -4616369.000
 8.380000114   -4617233.000
 8.569999695   -4618086.000
 8.760000229   -4618930.500
 8.949999809   -4619774.500
 9.140000343   -4620623.000
 9.329999924   -4621484.500
 9.520000458   -4622360.000
 9.710000038   -4623251.500
 9.899999619   -4624151.000
 10.09000015   -4625051.000
 10.27999973   -4625943.000
 10.47000027   -4626818.500
 10.65999985   -4627677.500
 10.85000038   -4628520.500
 11.03999996   -4629360.500
 11.22999954   -4630202.500
 11.42000008   -4631054.500
 11.60999966   -4631919.000
 11.80000019   -4632793.500
 11.98999977   -4633673.500
 12.18000031   -4634550.500
 12.36999989   -4635417.000
 12.56000042   -4636266.500
 12.75000000   -4637097.000
 12.93999958   -4637909.500
 13.13000011   -4638714.000
 13.31999969   -4639521.500
 13.51000023   -4640339.000
 13.69999981   -4641175.000
 13.89000034   -4642026.000
 14.07999992   -4642891.500
 14.27000046   -4643759.500
 14.46000004   -4644629.000
 14.64999962   -4645485.500
 14.84000015   -4646328.500
 15.02999973   -4647159.000
 15.22000027   -4647980.000
 15.40999985   -4648800.000
 15.60000038   -4649629.000
 15.78999996   -4650472.500
 15.97999954   -4651329.000
 16.17000008   -4652195.500
 16.36000061   -4653064.500
 16.54999924   -4653929.000
 16.73999977   -4654785.000
 16.93000031   -4655629.500
 17.12000084   -4656461.500
 17.30999947   -4657287.000
 17.50000000   -4658112.000
 17.69000053   -4658935.500
 17.87999916   -4659764.500
 18.06999969   -4660602.000
 18.26000023   -4661443.000
 18.45000076   -4662290.000
 18.63999939   -4663138.000
 18.82999992   -4663985.500
 19.02000046   -4664830.500
 19.20999908   -4665674.000
 19.39999962   -4666514.000
 19.59000015   -4667347.500
 19.78000069   -4668179.500
 19.96999931   -4669007.500
 20.15999985   -4669836.000
 20.35000038   -4670669.500
 20.54000092   -4671508.000
 20.72999954   -4672353.500
 20.92000008   -4673206.500
 21.11000061   -4674062.500
 21.29999924   -4674918.000
 21.48999977   -4675771.000
 21.68000031   -4676616.500
 21.87000084   -4677455.000
 22.05999947   -4678283.000
 22.25000000   -4679108.500
 22.44000053   -4679937.500
 22.62999916   -4680774.500
 22.81999969   -4681626.500
 23.01000023   -4682493.500
 23.20000076   -4683372.500
 23.38999939   -4684253.500
 23.57999992   -4685129.500
 23.77000046   -4685994.500
 23.95999908   -4686842.000
 24.14999962   -4687670.500
 24.34000015   -4688490.000
 24.53000069   -4689303.000
 24.71999931   -4690121.000
 24.90999985   -4690950.000
 25.10000038   -4691791.500
 25.29000092   -4692641.500
 25.47999954   -4693496.500
 25.67000008   -4694346.000
 25.86000061   -4695184.500
 26.04999924   -4696014.000
 26.23999977   -4696835.000
 26.43000031   -4697657.000
 26.62000084   -4698484.000
 26.80999947   -4699327.500
