 -30.00000000   -592021.8125
 -29.80999947   -592068.9375
 -29.62000084   -592057.3125
 -29.43000031   -592010.8750
 -29.23999977   -591959.4375
 -29.04999924   -591929.6250
 -28.86000061   -591940.1875
 -28.67000008   -591997.7500
 -28.47999954   -592088.0000
 -28.29000092   -592189.1250
 -28.10000038   -592267.1250
 -27.90999985   -592291.7500
 -27.71999931   -592244.4375
 -27.53000069   -592123.6875
 -27.34000015   -591951.3750
 -27.14999962   -591764.8125
 -26.95999908   -591605.8125
 -26.77000046   -591514.8125
 -26.57999992   -591512.4375
 -26.38999939   -591594.3125
 -26.20000076   -591737.3750
 -26.01000023   -591890.7500
 -25.81999969   -592009.6875
 -25.62999916   -592052.3750
 -25.44000053   -592001.3125
 -25.25000000   -591868.8750
 -25.05999947   -591690.1250
 -24.87000084   -591517.9375
 -24.68000031   -591400.5000
 -24.48999977   -591371.1875
 -24.29999924   -591437.9375
 -24.11000061   -591578.1250
 -23.92000008   -591743.0000
 -23.72999954   -591883.5000
 -23.54000092   -591947.2500
 -23.35000038   -591914.0625
 -23.15999985   -591784.1875
 -22.96999931   -591591.1250
 -22.78000069   -591385.6875
 -22.59000015   -591219.1875
 -22.39999962   -591132.4375
 -22.20999908   -591142.0000
 -22.02000046   -591232.5000
 -21.82999992   -591370.6875
 -21.63999939   -591506.1875
 -21.45000076   -591598.4375
 -21.26000023   -591609.9375
 -21.06999969   -591542.4375
 -20.87999916   -591412.5000
 -20.69000053   -591262.4375
 -20.50000000   -591139.9375
 -20.30999947   -591087.2500
 -20.12000084   -591129.0625
 -19.93000031   -591262.2500
 -19.73999977   -591459.8750
 -19.54999924   -591682.0000
 -19.36000061   -591879.5000
 -19.17000008   -592017.6875
 -18.97999954   -592075.8125
 -18.79000092   -592061.0625
 -18.60000038   -592002.2500
 -18.40999985   -591940.0000
 -18.21999931   -591920.3125
 -18.03000069   -591968.7500
 -17.84000015   -592094.1875
 -17.64999962   -592285.9375
 -17.45999908   -592510.2500
 -17.27000046   -592727.1875
 -17.07999992   -592901.7500
 -16.88999939   -593011.0000
 -16.70000076   -593051.0000
 -16.51000023   -593037.8125
 -16.31999969   -593001.4375
 -16.12999916   -592975.0625
 -15.93999958   -592989.4375
 -15.75000000   -593060.4375
 -15.56000042   -593190.1250
 -15.36999989   -593359.8750
 -15.18000031   -593542.5000
 -14.98999977   -593707.6250
 -14.80000019   -593827.8750
 -14.60999966   -593885.9375
 -14.42000008   -593884.3750
 -14.22999954   -593840.3750
 -14.03999996   -593788.1250
 -13.85000038   -593758.5000
 -13.65999985   -593785.8125
 -13.47000027   -593890.9375
 -13.27999973   -594074.6875
 -13.09000015   -594322.5000
 -12.89999962   -594602.6250
 -12.71000004   -594879.0625
 -12.52000046   -595116.1250
 -12.32999992   -595290.4375
 -12.14000034   -595396.2500
 -11.94999981   -595449.5000
 -11.76000023   -595476.3750
 -11.56999969   -595514.4375
 -11.38000011   -595593.9375
 -11.18999958   -595725.3750
 -11.00000000   -595904.3750
 -10.81000042   -596106.6875
 -10.61999989   -596294.3125
 -10.43000031   -596433.2500
 -10.23999977   -596498.1875
 -10.05000019   -596480.3750
 -9.859999657   -596393.8125
 -9.670000076   -596269.4375
 -9.479999542   -596150.8125
 -9.289999962   -596078.3750
 -9.100000381   -596079.6875
 -8.909999847   -596166.1875
 -8.720000267   -596325.3750
 -8.529999733   -596526.7500
 -8.340000153   -596734.6875
 -8.149999619   -596917.4375
 -7.960000038   -597049.3750
 -7.769999981   -597124.5000
 -7.579999924   -597155.2500
 -7.389999866   -597167.8750
 -7.199999809   -597195.4375
 -7.010000229   -597268.6875
 -6.820000172   -597405.6250
 -6.630000114   -597608.6250
 -6.440000057   -597860.8750
 -6.250000000   -598129.1875
 -6.059999943   -598376.6875
 -5.869999886   -598567.8750
 -5.679999828   -598680.1875
 -5.489999771   -598712.5625
 -5.300000191   -598683.0000
 -5.110000134   -598625.3750
 -4.920000076   -598583.3125
 -4.730000019   -598593.1875
 -4.539999962   -598671.2500
 -4.349999905   -598814.8125
 -4.159999847   -598999.2500
 -3.970000029   -599184.2500
 -3.779999971   -599329.1875
 -3.589999914   -599404.8750
 -3.400000095   -599400.5000
 -3.210000038   -599331.5625
 -3.019999981   -599232.5625
 -2.829999924   -599149.3750
 -2.640000105   -599124.6875
 -2.450000048   -599189.6875
 -2.259999990   -599348.9375
 -2.069999933   -599586.3750
 -1.879999995   -599859.3750
 -1.690000057   -600122.1875
 -1.500000000   -600333.7500
 -1.309999943   -600463.3125
 -1.120000005   -600509.3750
 -0.9300000072   -600487.7500
 -0.7400000095   -600436.1875
 -0.5500000119   -600398.7500
 -0.3600000143   -600412.0625
 -0.1700000018   -600502.6250
 0.1999999955E-01   -600670.8125
 0.2099999934   -600894.6250
 0.4000000060   -601136.1250
 0.5899999738   -601351.2500
 0.7799999714   -601503.0625
 0.9700000286   -601572.5625
 1.159999967   -601564.7500
 1.350000024   -601506.0625
 1.539999962   -601441.8750
 1.730000019   -601414.2500
 1.919999957   -601463.9375
 2.109999895   -601599.8750
 2.299999952   -601815.9375
 2.490000010   -602070.6250
 2.680000067   -602320.0625
 2.869999886   -602512.8750
 3.059999943   -602617.5625
 3.250000000   -602621.6250
 3.440000057   -602549.0000
 3.630000114   -602434.8125
 3.819999933   -602328.7500
 4.010000229   -602273.0625
 4.199999809   -602298.5000
 4.389999866   -602410.2500
 4.579999924   -602593.5625
 4.769999981   -602810.5625
 4.960000038   -603016.3125
 5.150000095   -603174.1875
 5.340000153   -603260.6250
 5.530000210   -603272.6875
 5.719999790   -603238.1250
 5.909999847   -603197.8750
 6.099999905   -603196.5000
 6.289999962   -603272.5000
 6.480000019   -603442.3750
 6.670000076   -603697.2500
 6.860000134   -604001.4375
 7.050000191   -604307.3750
 7.239999771   -604563.5625
 7.429999828   -604725.6250
 7.619999886   -604778.0000
 7.809999943   -604730.7500
 8.000000000   -604618.0625
 8.189999580   -604495.9375
 8.380000114   -604413.0625
 8.569999695   -604411.5000
 8.760000229   -604503.0000
 8.949999809   -604671.8750
 9.140000343   -604882.0000
 9.329999924   -605081.4375
 9.520000458   -605221.2500
 9.710000038   -605267.9375
 9.899999619   -605217.4375
 10.09000015   -605094.1875
 10.27999973   -604948.1250
 10.47000027   -604841.5000
 10.65999985   -604824.7500
 10.85000038   -604930.3750
 11.03999996   -605153.5000
 11.22999954   -605463.7500
 11.42000008   -605799.6875
 11.60999966   -606102.2500
 11.80000019   -606319.3125
 11.98999977   -606424.3750
 12.18000031   -606426.6250
 12.36999989   -606364.5625
 12.56000042   -606296.1875
 12.75000000   -606282.5625
 12.93999958   -606365.1250
 13.13000011   -606558.0625
 13.31999969   -606841.3750
 13.51000023   -607166.1250
 13.69999981   -607467.5000
 13.89000034   -607691.2500
 14.07999992   -607797.7500
 14.27000046   -607785.0625
 14.46000004   -607681.8125
 14.64999962   -607549.1250
 14.84000015   -607448.6875
 15.02999973   -607439.2500
 15.22000027   -607549.0625
 15.40999985   -607771.3750
 15.60000038   -608069.0625
 15.78999996   -608384.1875
 15.97999954   -608654.4375
 16.17000008   -608837.5000
 16.36000061   -608914.0625
 16.54999924   -608899.8125
 16.73999977   -608833.1875
 16.93000031   -608770.5000
 17.12000084   -608762.0000
 17.30999947   -608847.2500
 17.50000000   -609034.0000
 17.69000053   -609298.7500
 17.87999916   -609599.3125
 18.06999969   -609873.6875
 18.26000023   -610067.6875
 18.45000076   -610149.0000
 18.63999939   -610116.2500
 18.82999992   -609996.0625
 19.02000046   -609839.6875
 19.20999908   -609706.8125
 19.39999962   -609650.0625
 19.59000015   -609701.2500
 19.78000069   -609857.8125
 19.96999931   -610092.5000
 20.15999985   -610352.5000
 20.35000038   -610576.6250
 20.54000092   -610719.9375
 20.72999954   -610757.8125
 20.92000008   -610699.9375
 21.11000061   -610584.0625
 21.29999924   -610467.6875
 21.48999977   -610407.3125
 21.68000031   -610442.5625
 21.87000084   -610589.5625
 22.05999947   -610830.3125
 22.25000000   -611116.0625
 22.44000053   -611389.5625
 22.62999916   -611591.2500
 22.81999969   -611685.5625
 23.01000023   -611667.7500
 23.20000076   -611566.8750
 23.38999939   -611440.7500
 23.57999992   -611346.8750
 23.77000046   -611341.6875
 23.95999908   -611451.3125
 24.14999962   -611676.3125
 24.34000015   -611980.8125
 24.53000069   -612312.8125
 24.71999931   -612611.1875
 24.90999985   -612829.5000
 25.10000038   -612942.1875
 25.29000092   -612958.1250
 25.47999954   -612909.7500
 25.67000008   -612853.3750
 25.86000061   -612839.1250
 26.04999924   -612907.5625
 26.23999977   -613068.1250
 26.43000031   -613309.6250
 26.62000084   -613591.9375
 26.80999947   -613861.0625
