 -30.00000000   10088756.00
 -29.80999947   10090829.00
 -29.62000084   10092906.00
 -29.43000031   10094974.00
 -29.23999977   10097033.00
 -29.04999924   10099092.00
 -28.86000061   10101162.00
 -28.67000008   10103243.00
 -28.47999954   10105327.00
 -28.29000092   10107403.00
 -28.10000038   10109463.00
 -27.90999985   10111521.00
 -27.71999931   10113584.00
 -27.53000069   10115657.00
 -27.34000015   10117729.00
 -27.14999962   10119789.00
 -26.95999908   10121840.00
 -26.77000046   10123894.00
 -26.57999992   10125964.00
 -26.38999939   10128054.00
 -26.20000076   10130150.00
 -26.01000023   10132239.00
 -25.81999969   10134310.00
 -25.62999916   10136372.00
 -25.44000053   10138435.00
 -25.25000000   10140505.00
 -25.05999947   10142578.00
 -24.87000084   10144646.00
 -24.68000031   10146711.00
 -24.48999977   10148780.00
 -24.29999924   10150863.00
 -24.11000061   10152954.00
 -23.92000008   10155045.00
 -23.72999954   10157127.00
 -23.54000092   10159193.00
 -23.35000038   10161251.00
 -23.15999985   10163313.00
 -22.96999931   10165380.00
 -22.78000069   10167455.00
 -22.59000015   10169528.00
 -22.39999962   10171593.00
 -22.20999908   10173656.00
 -22.02000046   10175724.00
 -21.82999992   10177797.00
 -21.63999939   10179868.00
 -21.45000076   10181932.00
 -21.26000023   10183987.00
 -21.06999969   10186036.00
 -20.87999916   10188088.00
 -20.69000053   10190148.00
 -20.50000000   10192215.00
 -20.30999947   10194284.00
 -20.12000084   10196353.00
 -19.93000031   10198419.00
 -19.73999977   10200486.00
 -19.54999924   10202561.00
 -19.36000061   10204635.00
 -19.17000008   10206707.00
 -18.97999954   10208774.00
 -18.79000092   10210831.00
 -18.60000038   10212890.00
 -18.40999985   10214961.00
 -18.21999931   10217036.00
 -18.03000069   10219115.00
 -17.84000015   10221191.00
 -17.64999962   10223262.00
 -17.45999908   10225331.00
 -17.27000046   10227405.00
 -17.07999992   10229487.00
 -16.88999939   10231570.00
 -16.70000076   10233654.00
 -16.51000023   10235738.00
 -16.31999969   10237821.00
 -16.12999916   10239912.00
 -15.93999958   10242007.00
 -15.75000000   10244104.00
 -15.56000042   10246197.00
 -15.36999989   10248284.00
 -15.18000031   10250366.00
 -14.98999977   10252449.00
 -14.80000019   10254532.00
 -14.60999966   10256614.00
 -14.42000008   10258693.00
 -14.22999954   10260769.00
 -14.03999996   10262844.00
 -13.85000038   10264919.00
 -13.65999985   10266997.00
 -13.47000027   10269074.00
 -13.27999973   10271146.00
 -13.09000015   10273213.00
 -12.89999962   10275273.00
 -12.71000004   10277332.00
 -12.52000046   10279397.00
 -12.32999992   10281468.00
 -12.14000034   10283541.00
 -11.94999981   10285611.00
 -11.76000023   10287675.00
 -11.56999969   10289739.00
 -11.38000011   10291804.00
 -11.18999958   10293873.00
 -11.00000000   10295943.00
 -10.81000042   10298012.00
 -10.61999989   10300081.00
 -10.43000031   10302151.00
 -10.23999977   10304223.00
 -10.05000019   10306297.00
 -9.859999657   10308368.00
 -9.670000076   10310433.00
 -9.479999542   10312495.00
 -9.289999962   10314560.00
 -9.100000381   10316633.00
 -8.909999847   10318712.00
 -8.720000267   10320799.00
 -8.529999733   10322889.00
 -8.340000153   10324978.00
 -8.149999619   10327070.00
 -7.960000038   10329165.00
 -7.769999981   10331259.00
 -7.579999924   10333356.00
 -7.389999866   10335446.00
 -7.199999809   10337530.00
 -7.010000229   10339606.00
 -6.820000172   10341685.00
 -6.630000114   10343771.00
 -6.440000057   10345868.00
 -6.250000000   10347970.00
 -6.059999943   10350068.00
 -5.869999886   10352159.00
 -5.679999828   10354239.00
 -5.489999771   10356310.00
 -5.300000191   10358374.00
 -5.110000134   10360438.00
 -4.920000076   10362496.00
 -4.730000019   10364553.00
 -4.539999962   10366612.00
 -4.349999905   10368675.00
 -4.159999847   10370741.00
 -3.970000029   10372811.00
 -3.779999971   10374882.00
 -3.589999914   10376957.00
 -3.400000095   10379038.00
 -3.210000038   10381121.00
 -3.019999981   10383209.00
 -2.829999924   10385298.00
 -2.640000105   10387389.00
 -2.450000048   10389484.00
 -2.259999990   10391582.00
 -2.069999933   10393686.00
 -1.879999995   10395792.00
 -1.690000057   10397893.00
 -1.500000000   10399993.00
 -1.309999943   10402088.00
 -1.120000005   10404178.00
 -0.9300000072   10406269.00
 -0.7400000095   10408360.00
 -0.5500000119   10410449.00
 -0.3600000143   10412538.00
 -0.1700000018   10414627.00
 0.1999999955E-01   10416716.00
 0.2099999934   10418810.00
 0.4000000060   10420905.00
 0.5899999738   10422999.00
 0.7799999714   10425083.00
 0.9700000286   10427161.00
 1.159999967   10429242.00
 1.350000024   10431330.00
 1.539999962   10433422.00
 1.730000019   10435515.00
 1.919999957   10437609.00
 2.109999895   10439701.00
 2.299999952   10441796.00
 2.490000010   10443895.00
 2.680000067   10445991.00
 2.869999886   10448076.00
 3.059999943   10450147.00
 3.250000000   10452211.00
 3.440000057   10454273.00
 3.630000114   10456345.00
 3.819999933   10458423.00
 4.010000229   10460500.00
 4.199999809   10462566.00
 4.389999866   10464629.00
 4.579999924   10466696.00
 4.769999981   10468768.00
 4.960000038   10470841.00
 5.150000095   10472904.00
 5.340000153   10474955.00
 5.530000210   10476998.00
 5.719999790   10479051.00
 5.909999847   10481122.00
 6.099999905   10483210.00
 6.289999962   10485298.00
 6.480000019   10487379.00
 6.670000076   10489451.00
 6.860000134   10491527.00
 7.050000191   10493612.00
 7.239999771   10495705.00
 7.429999828   10497799.00
 7.619999886   10499877.00
 7.809999943   10501944.00
 8.000000000   10504010.00
 8.189999580   10506085.00
 8.380000114   10508168.00
 8.569999695   10510249.00
 8.760000229   10512318.00
 8.949999809   10514373.00
 9.140000343   10516428.00
 9.329999924   10518497.00
 9.520000458   10520582.00
 9.710000038   10522669.00
 9.899999619   10524750.00
 10.09000015   10526821.00
 10.27999973   10528888.00
 10.47000027   10530964.00
 10.65999985   10533053.00
 10.85000038   10535148.00
 11.03999996   10537236.00
 11.22999954   10539310.00
 11.42000008   10541386.00
 11.60999966   10543470.00
 11.80000019   10545568.00
 11.98999977   10547665.00
 12.18000031   10549754.00
 12.36999989   10551825.00
 12.56000042   10553889.00
 12.75000000   10555962.00
 12.93999958   10558050.00
 13.13000011   10560150.00
 13.31999969   10562245.00
 13.51000023   10564332.00
 13.69999981   10566410.00
 13.89000034   10568494.00
 14.07999992   10570587.00
 14.27000046   10572681.00
 14.46000004   10574763.00
 14.64999962   10576826.00
 14.84000015   10578878.00
 15.02999973   10580939.00
 15.22000027   10583020.00
 15.40999985   10585114.00
 15.60000038   10587206.00
 15.78999996   10589285.00
 15.97999954   10591357.00
 16.17000008   10593433.00
 16.36000061   10595524.00
 16.54999924   10597621.00
 16.73999977   10599709.00
 16.93000031   10601778.00
 17.12000084   10603837.00
 17.30999947   10605909.00
 17.50000000   10608001.00
 17.69000053   10610109.00
 17.87999916   10612212.00
 18.06999969   10614295.00
 18.26000023   10616361.00
 18.45000076   10618434.00
 18.63999939   10620521.00
 18.82999992   10622616.00
 19.02000046   10624704.00
 19.20999908   10626772.00
 19.39999962   10628828.00
 19.59000015   10630894.00
 19.78000069   10632985.00
 19.96999931   10635096.00
 20.15999985   10637202.00
 20.35000038   10639287.00
 20.54000092   10641347.00
 20.72999954   10643404.00
 20.92000008   10645472.00
 21.11000061   10647550.00
 21.29999924   10649626.00
 21.48999977   10651683.00
 21.68000031   10653726.00
 21.87000084   10655779.00
 22.05999947   10657854.00
 22.25000000   10659951.00
 22.44000053   10662049.00
 22.62999916   10664134.00
 22.81999969   10666203.00
 23.01000023   10668274.00
 23.20000076   10670365.00
 23.38999939   10672477.00
 23.57999992   10674593.00
 23.77000046   10676694.00
 23.95999908   10678776.00
 24.14999962   10680854.00
 24.34000015   10682941.00
 24.53000069   10685044.00
 24.71999931   10687148.00
 24.90999985   10689234.00
 25.10000038   10691300.00
 25.29000092   10693356.00
 25.47999954   10695418.00
 25.67000008   10697500.00
 25.86000061   10699591.00
 26.04999924   10701676.00
 26.23999977   10703748.00
 26.43000031   10705818.00
 26.62000084   10707894.00
 26.80999947   10709989.00
