 -30.00000000   -535252.8750
 -29.80999947   -535352.0000
 -29.62000084   -535442.6250
 -29.43000031   -535529.0625
 -29.23999977   -535615.8750
 -29.04999924   -535707.6875
 -28.86000061   -535805.6875
 -28.67000008   -535908.3125
 -28.47999954   -536014.8750
 -28.29000092   -536120.8750
 -28.10000038   -536222.0625
 -27.90999985   -536318.6250
 -27.71999931   -536406.5625
 -27.53000069   -536488.0625
 -27.34000015   -536568.1875
 -27.14999962   -536648.9375
 -26.95999908   -536735.2500
 -26.77000046   -536829.7500
 -26.57999992   -536931.5000
 -26.38999939   -537038.7500
 -26.20000076   -537149.0625
 -26.01000023   -537257.6875
 -25.81999969   -537363.0625
 -25.62999916   -537460.0000
 -25.44000053   -537551.6250
 -25.25000000   -537637.2500
 -25.05999947   -537721.0000
 -24.87000084   -537807.2500
 -24.68000031   -537898.9375
 -24.48999977   -537998.6875
 -24.29999924   -538105.1250
 -24.11000061   -538216.8125
 -23.92000008   -538327.8750
 -23.72999954   -538434.0000
 -23.54000092   -538532.8125
 -23.35000038   -538624.8125
 -23.15999985   -538710.9375
 -22.96999931   -538793.1250
 -22.78000069   -538876.6875
 -22.59000015   -538967.1250
 -22.39999962   -539065.4375
 -22.20999908   -539173.1250
 -22.02000046   -539286.4375
 -21.82999992   -539401.5000
 -21.63999939   -539514.3750
 -21.45000076   -539621.3125
 -21.26000023   -539721.0000
 -21.06999969   -539812.5000
 -20.87999916   -539898.4375
 -20.69000053   -539984.5000
 -20.50000000   -540075.3750
 -20.30999947   -540173.7500
 -20.12000084   -540282.5000
 -19.93000031   -540398.3750
 -19.73999977   -540517.6875
 -19.54999924   -540637.5625
 -19.36000061   -540751.9375
 -19.17000008   -540856.6875
 -18.97999954   -540953.5625
 -18.79000092   -541041.9375
 -18.60000038   -541129.6250
 -18.40999985   -541218.3750
 -18.21999931   -541315.4375
 -18.03000069   -541421.4375
 -17.84000015   -541536.6250
 -17.64999962   -541658.3750
 -17.45999908   -541781.0625
 -17.27000046   -541902.0000
 -17.07999992   -542014.6250
 -16.88999939   -542120.3125
 -16.70000076   -542218.3125
 -16.51000023   -542310.5000
 -16.31999969   -542401.1250
 -16.12999916   -542494.1875
 -15.93999958   -542594.1875
 -15.75000000   -542698.8750
 -15.56000042   -542810.5000
 -15.36999989   -542924.5000
 -15.18000031   -543036.0625
 -14.98999977   -543144.2500
 -14.80000019   -543244.0000
 -14.60999966   -543338.1875
 -14.42000008   -543428.9375
 -14.22999954   -543517.5625
 -14.03999996   -543611.4375
 -13.85000038   -543711.6250
 -13.65999985   -543821.8750
 -13.47000027   -543941.4375
 -13.27999973   -544067.3125
 -13.09000015   -544193.6875
 -12.89999962   -544316.2500
 -12.71000004   -544434.5000
 -12.52000046   -544543.9375
 -12.32999992   -544646.0625
 -12.14000034   -544745.8125
 -11.94999981   -544844.0625
 -11.76000023   -544945.5000
 -11.56999969   -545050.7500
 -11.38000011   -545162.1250
 -11.18999958   -545278.1250
 -11.00000000   -545392.3125
 -10.81000042   -545503.1875
 -10.61999989   -545605.1250
 -10.43000031   -545700.6250
 -10.23999977   -545787.6875
 -10.05000019   -545871.0625
 -9.859999657   -545954.8750
 -9.670000076   -546044.9375
 -9.479999542   -546143.6250
 -9.289999962   -546250.5000
 -9.100000381   -546363.8125
 -8.909999847   -546481.0625
 -8.720000267   -546595.7500
 -8.529999733   -546706.3125
 -8.340000153   -546810.1875
 -8.149999619   -546908.9375
 -7.960000038   -547003.8750
 -7.769999981   -547101.3750
 -7.579999924   -547204.7500
 -7.389999866   -547315.1250
 -7.199999809   -547436.1875
 -7.010000229   -547563.1875
 -6.820000172   -547693.5625
 -6.630000114   -547819.7500
 -6.440000057   -547942.5000
 -6.250000000   -548057.8750
 -6.059999943   -548164.8750
 -5.869999886   -548266.0000
 -5.679999828   -548361.8750
 -5.489999771   -548457.0000
 -5.300000191   -548555.1250
 -5.110000134   -548657.5625
 -4.920000076   -548764.1250
 -4.730000019   -548876.0625
 -4.539999962   -548989.4375
 -4.349999905   -549100.7500
 -4.159999847   -549211.3125
 -3.970000029   -549317.3125
 -3.779999971   -549418.6875
 -3.589999914   -549516.1875
 -3.400000095   -549612.6875
 -3.210000038   -549711.1875
 -3.019999981   -549812.0000
 -2.829999924   -549918.0625
 -2.640000105   -550028.9375
 -2.450000048   -550145.3750
 -2.259999990   -550262.4375
 -2.069999933   -550381.4375
 -1.879999995   -550496.5000
 -1.690000057   -550609.6250
 -1.500000000   -550716.8750
 -1.309999943   -550820.0000
 -1.120000005   -550921.3125
 -0.9300000072   -551021.0000
 -0.7400000095   -551123.3750
 -0.5500000119   -551229.9375
 -0.3600000143   -551340.0000
 -0.1700000018   -551455.6250
 0.1999999955E-01   -551573.4375
 0.2099999934   -551692.3125
 0.4000000060   -551806.9375
 0.5899999738   -551916.8750
 0.7799999714   -552021.7500
 0.9700000286   -552121.5000
 1.159999967   -552218.8125
 1.350000024   -552317.5625
 1.539999962   -552419.3125
 1.730000019   -552523.5000
 1.919999957   -552634.1875
 2.109999895   -552751.4375
 2.299999952   -552870.0625
 2.490000010   -552987.6250
 2.680000067   -553104.5625
 2.869999886   -553215.0625
 3.059999943   -553320.3750
 3.250000000   -553421.0625
 3.440000057   -553520.1250
 3.630000114   -553620.0000
 3.819999933   -553722.3750
 4.010000229   -553829.4375
 4.199999809   -553940.1250
 4.389999866   -554052.0625
 4.579999924   -554165.1875
 4.769999981   -554274.3125
 4.960000038   -554380.2500
 5.150000095   -554480.5625
 5.340000153   -554577.4375
 5.530000210   -554676.8750
 5.719999790   -554781.2500
 5.909999847   -554892.9375
 6.099999905   -555011.9375
 6.289999962   -555136.9375
 6.480000019   -555262.0625
 6.670000076   -555387.9375
 6.860000134   -555510.8750
 7.050000191   -555623.6875
 7.239999771   -555729.3750
 7.429999828   -555829.7500
 7.619999886   -555927.5000
 7.809999943   -556029.2500
 8.000000000   -556135.1250
 8.189999580   -556247.8750
 8.380000114   -556366.6875
 8.569999695   -556487.3750
 8.760000229   -556608.1875
 8.949999809   -556723.0625
 9.140000343   -556831.7500
 9.329999924   -556931.1250
 9.520000458   -557024.8125
 9.710000038   -557117.2500
 9.899999619   -557210.9375
 10.09000015   -557312.0625
 10.27999973   -557422.3125
 10.47000027   -557539.7500
 10.65999985   -557663.0625
 10.85000038   -557787.6875
 11.03999996   -557908.0000
 11.22999954   -558023.8125
 11.42000008   -558132.6250
 11.60999966   -558237.5000
 11.80000019   -558341.5625
 11.98999977   -558446.8750
 12.18000031   -558558.6250
 12.36999989   -558676.6875
 12.56000042   -558800.6250
 12.75000000   -558928.1250
 12.93999958   -559057.3750
 13.13000011   -559181.7500
 13.31999969   -559298.9375
 13.51000023   -559407.7500
 13.69999981   -559509.7500
 13.89000034   -559607.9375
 14.07999992   -559704.0625
 14.27000046   -559801.4375
 14.46000004   -559902.8750
 14.64999962   -560011.8750
 14.84000015   -560125.6875
 15.02999973   -560244.5625
 15.22000027   -560362.6875
 15.40999985   -560479.8750
 15.60000038   -560591.1875
 15.78999996   -560693.8750
 15.97999954   -560790.8125
 16.17000008   -560884.1250
 16.36000061   -560977.6875
 16.54999924   -561074.1875
 16.73999977   -561177.3125
 16.93000031   -561288.4375
 17.12000084   -561404.4375
 17.30999947   -561522.9375
 17.50000000   -561641.1250
 17.69000053   -561757.1250
 17.87999916   -561863.8125
 18.06999969   -561967.8125
 18.26000023   -562067.5000
 18.45000076   -562164.1875
 18.63999939   -562264.5000
 18.82999992   -562367.5000
 19.02000046   -562477.1875
 19.20999908   -562590.4375
 19.39999962   -562708.0000
 19.59000015   -562826.8750
 19.78000069   -562942.0625
 19.96999931   -563054.2500
 20.15999985   -563160.0625
 20.35000038   -563261.3750
 20.54000092   -563359.1250
 20.72999954   -563459.1250
 20.92000008   -563561.9375
 21.11000061   -563672.1250
 21.29999924   -563786.4375
 21.48999977   -563906.0000
 21.68000031   -564028.0000
 21.87000084   -564149.0000
 22.05999947   -564268.1875
 22.25000000   -564381.2500
 22.44000053   -564490.8750
 22.62999916   -564598.8125
 22.81999969   -564707.3125
 23.01000023   -564817.1250
 23.20000076   -564930.3125
 23.38999939   -565048.5000
 23.57999992   -565168.3125
 23.77000046   -565291.5625
 23.95999908   -565415.5625
 24.14999962   -565539.3125
 24.34000015   -565664.6250
 24.53000069   -565787.6875
 24.71999931   -565908.2500
 24.90999985   -566025.8125
 25.10000038   -566142.8750
 25.29000092   -566260.1250
 25.47999954   -566377.6250
 25.67000008   -566498.0000
 25.86000061   -566624.0625
 26.04999924   -566752.6250
 26.23999977   -566884.2500
 26.43000031   -567015.1875
 26.62000084   -567143.6250
 26.80999947   -567267.6250
