 -30.00000000   7308395.000
 -29.80999947   7309904.000
 -29.62000084   7311418.500
 -29.43000031   7312923.500
 -29.23999977   7314419.000
 -29.04999924   7315916.000
 -28.86000061   7317423.500
 -28.67000008   7318942.000
 -28.47999954   7320463.000
 -28.29000092   7321976.000
 -28.10000038   7323475.000
 -27.90999985   7324973.500
 -27.71999931   7326479.000
 -27.53000069   7327995.000
 -27.34000015   7329517.500
 -27.14999962   7331033.500
 -26.95999908   7332537.500
 -26.77000046   7334036.500
 -26.57999992   7335546.500
 -26.38999939   7337067.000
 -26.20000076   7338595.000
 -26.01000023   7340114.500
 -25.81999969   7341623.000
 -25.62999916   7343126.000
 -25.44000053   7344632.000
 -25.25000000   7346149.000
 -25.05999947   7347671.500
 -24.87000084   7349191.500
 -24.68000031   7350699.500
 -24.48999977   7352200.500
 -24.29999924   7353702.500
 -24.11000061   7355218.000
 -23.92000008   7356740.000
 -23.72999954   7358259.500
 -23.54000092   7359769.500
 -23.35000038   7361270.000
 -23.15999985   7362771.000
 -22.96999931   7364280.000
 -22.78000069   7365799.000
 -22.59000015   7367316.500
 -22.39999962   7368824.000
 -22.20999908   7370321.500
 -22.02000046   7371821.500
 -21.82999992   7373330.500
 -21.63999939   7374848.000
 -21.45000076   7376369.500
 -21.26000023   7377880.000
 -21.06999969   7379379.000
 -20.87999916   7380872.500
 -20.69000053   7382371.500
 -20.50000000   7383877.500
 -20.30999947   7385386.500
 -20.12000084   7386889.000
 -19.93000031   7388383.000
 -19.73999977   7389873.000
 -19.54999924   7391370.500
 -19.36000061   7392882.000
 -19.17000008   7394404.000
 -18.97999954   7395924.500
 -18.79000092   7397431.500
 -18.60000038   7398934.500
 -18.40999985   7400441.000
 -18.21999931   7401958.500
 -18.03000069   7403483.000
 -17.84000015   7405001.000
 -17.64999962   7406505.500
 -17.45999908   7408002.500
 -17.27000046   7409499.500
 -17.07999992   7411007.000
 -16.88999939   7412520.000
 -16.70000076   7414034.500
 -16.51000023   7415537.500
 -16.31999969   7417034.500
 -16.12999916   7418533.500
 -15.93999958   7420051.000
 -15.75000000   7421577.500
 -15.56000042   7423109.500
 -15.36999989   7424632.000
 -15.18000031   7426145.000
 -14.98999977   7427657.000
 -14.80000019   7429177.000
 -14.60999966   7430705.000
 -14.42000008   7432233.000
 -14.22999954   7433750.500
 -14.03999996   7435252.000
 -13.85000038   7436754.500
 -13.65999985   7438265.000
 -13.47000027   7439793.000
 -13.27999973   7441323.500
 -13.09000015   7442843.000
 -12.89999962   7444349.000
 -12.71000004   7445850.500
 -12.52000046   7447359.500
 -12.32999992   7448880.000
 -12.14000034   7450406.000
 -11.94999981   7451924.000
 -11.76000023   7453428.000
 -11.56999969   7454928.500
 -11.38000011   7456438.500
 -11.18999958   7457963.000
 -11.00000000   7459495.500
 -10.81000042   7461019.500
 -10.61999989   7462527.500
 -10.43000031   7464024.500
 -10.23999977   7465522.500
 -10.05000019   7467033.500
 -9.859999657   7468550.000
 -9.670000076   7470060.500
 -9.479999542   7471557.000
 -9.289999962   7473048.500
 -9.100000381   7474547.500
 -8.909999847   7476064.500
 -8.720000267   7477591.000
 -8.529999733   7479112.000
 -8.340000153   7480619.000
 -8.149999619   7482116.500
 -7.960000038   7483616.500
 -7.769999981   7485129.500
 -7.579999924   7486652.500
 -7.389999866   7488169.500
 -7.199999809   7489669.500
 -7.010000229   7491152.000
 -6.820000172   7492636.000
 -6.630000114   7494130.000
 -6.440000057   7495639.000
 -6.250000000   7497148.500
 -6.059999943   7498647.000
 -5.869999886   7500135.500
 -5.679999828   7501627.000
 -5.489999771   7503137.000
 -5.300000191   7504665.000
 -5.110000134   7506196.000
 -4.920000076   7507712.000
 -4.730000019   7509207.500
 -4.539999962   7510695.000
 -4.349999905   7512193.500
 -4.159999847   7513707.500
 -3.970000029   7515226.500
 -3.779999971   7516736.000
 -3.589999914   7518230.000
 -3.400000095   7519720.000
 -3.210000038   7521224.000
 -3.019999981   7522748.000
 -2.829999924   7524280.000
 -2.640000105   7525799.000
 -2.450000048   7527301.500
 -2.259999990   7528796.500
 -2.069999933   7530306.000
 -1.879999995   7531833.000
 -1.690000057   7533371.000
 -1.500000000   7534897.500
 -1.309999943   7536405.000
 -1.120000005   7537901.500
 -0.9300000072   7539406.500
 -0.7400000095   7540927.000
 -0.5500000119   7542453.500
 -0.3600000143   7543972.500
 -0.1700000018   7545474.000
 0.1999999955E-01   7546963.500
 0.2099999934   7548463.500
 0.4000000060   7549983.000
 0.5899999738   7551518.000
 0.7799999714   7553048.500
 0.9700000286   7554560.500
 1.159999967   7556057.500
 1.350000024   7557560.500
 1.539999962   7559082.500
 1.730000019   7560619.000
 1.919999957   7562153.000
 2.109999895   7563669.000
 2.299999952   7565171.500
 2.490000010   7566679.500
 2.680000067   7568208.000
 2.869999886   7569752.000
 3.059999943   7571288.000
 3.250000000   7572804.000
 3.440000057   7574299.500
 3.630000114   7575796.500
 3.819999933   7577315.500
 4.010000229   7578857.000
 4.199999809   7580397.500
 4.389999866   7581922.500
 4.579999924   7583431.500
 4.769999981   7584941.500
 4.960000038   7586469.500
 5.150000095   7588015.000
 5.340000153   7589558.500
 5.530000210   7591084.000
 5.719999790   7592588.500
 5.909999847   7594091.500
 6.099999905   7595611.500
 6.289999962   7597151.000
 6.480000019   7598692.500
 6.670000076   7600217.000
 6.860000134   7601723.000
 7.050000191   7603226.000
 7.239999771   7604745.500
 7.429999828   7606286.000
 7.619999886   7607832.500
 7.809999943   7609364.000
 8.000000000   7610874.500
 8.189999580   7612378.000
 8.380000114   7613895.000
 8.569999695   7615435.500
 8.760000229   7616985.000
 8.949999809   7618521.000
 9.140000343   7620035.500
 9.329999924   7621536.500
 9.520000458   7623047.000
 9.710000038   7624578.000
 9.899999619   7626117.000
 10.09000015   7627646.500
 10.27999973   7629155.500
 10.47000027   7630657.000
 10.65999985   7632169.000
 10.85000038   7633702.500
 11.03999996   7635249.500
 11.22999954   7636790.000
 11.42000008   7638305.500
 11.60999966   7639805.500
 11.80000019   7641312.000
 11.98999977   7642836.000
 12.18000031   7644375.500
 12.36999989   7645910.500
 12.56000042   7647428.000
 12.75000000   7648930.000
 12.93999958   7650436.000
 13.13000011   7651959.000
 13.31999969   7653498.500
 13.51000023   7655032.500
 13.69999981   7656551.000
 13.89000034   7658051.500
 14.07999992   7659553.000
 14.27000046   7661074.000
 14.46000004   7662614.500
 14.64999962   7664157.500
 14.84000015   7665689.000
 15.02999973   7667201.000
 15.22000027   7668712.500
 15.40999985   7670239.000
 15.60000038   7671783.500
 15.78999996   7673332.500
 15.97999954   7674871.000
 16.17000008   7676391.500
 16.36000061   7677906.500
 16.54999924   7679431.500
 16.73999977   7680975.000
 16.93000031   7682522.000
 17.12000084   7684058.500
 17.30999947   7685577.500
 17.50000000   7687083.500
 17.69000053   7688597.000
 17.87999916   7690127.500
 18.06999969   7691666.000
 18.26000023   7693202.000
 18.45000076   7694724.500
 18.63999939   7696240.500
 18.82999992   7697764.000
 19.02000046   7699306.000
 19.20999908   7700857.500
 19.39999962   7702407.500
 19.59000015   7703943.000
 19.78000069   7705467.500
 19.96999931   7706991.000
 20.15999985   7708529.000
 20.35000038   7710079.000
 20.54000092   7711630.500
 20.72999954   7713171.000
 20.92000008   7714697.500
 21.11000061   7716223.500
 21.29999924   7717763.500
 21.48999977   7719322.000
 21.68000031   7720884.000
 21.87000084   7722437.500
 22.05999947   7723977.500
 22.25000000   7725514.000
 22.44000053   7727061.000
 22.62999916   7728622.500
 22.81999969   7730188.000
 23.01000023   7731742.500
 23.20000076   7733282.000
 23.38999939   7734818.500
 23.57999992   7736364.000
 23.77000046   7737922.500
 23.95999908   7739487.000
 24.14999962   7741041.500
 24.34000015   7742579.500
 24.53000069   7744106.000
 24.71999931   7745634.500
 24.90999985   7747172.000
 25.10000038   7748714.500
 25.29000092   7750252.500
 25.47999954   7751779.000
 25.67000008   7753297.500
 25.86000061   7754818.500
 26.04999924   7756356.000
 26.23999977   7757900.500
 26.43000031   7759441.000
 26.62000084   7760965.000
 26.80999947   7762476.000
