 -30.00000000   8253457.500
 -29.80999947   8255130.000
 -29.62000084   8256791.000
 -29.43000031   8258446.500
 -29.23999977   8260098.500
 -29.04999924   8261758.000
 -28.86000061   8263423.000
 -28.67000008   8265096.500
 -28.47999954   8266775.000
 -28.29000092   8268452.000
 -28.10000038   8270124.500
 -27.90999985   8271785.500
 -27.71999931   8273436.500
 -27.53000069   8275075.500
 -27.34000015   8276710.000
 -27.14999962   8278343.000
 -26.95999908   8279982.500
 -26.77000046   8281630.500
 -26.57999992   8283290.000
 -26.38999939   8284958.000
 -26.20000076   8286632.000
 -26.01000023   8288301.000
 -25.81999969   8289966.000
 -25.62999916   8291618.500
 -25.44000053   8293258.500
 -25.25000000   8294890.500
 -25.05999947   8296517.000
 -24.87000084   8298145.500
 -24.68000031   8299781.500
 -24.48999977   8301427.500
 -24.29999924   8303085.000
 -24.11000061   8304747.500
 -23.92000008   8306412.500
 -23.72999954   8308072.500
 -23.54000092   8309721.000
 -23.35000038   8311354.500
 -23.15999985   8312977.500
 -22.96999931   8314591.500
 -22.78000069   8316206.000
 -22.59000015   8317827.500
 -22.39999962   8319459.000
 -22.20999908   8321104.000
 -22.02000046   8322757.500
 -21.82999992   8324417.000
 -21.63999939   8326074.000
 -21.45000076   8327720.500
 -21.26000023   8329355.500
 -21.06999969   8330980.000
 -20.87999916   8332596.500
 -20.69000053   8334210.500
 -20.50000000   8335831.000
 -20.30999947   8337462.500
 -20.12000084   8339106.000
 -19.93000031   8340761.000
 -19.73999977   8342421.000
 -19.54999924   8344081.500
 -19.36000061   8345734.000
 -19.17000008   8347376.500
 -18.97999954   8349009.000
 -18.79000092   8350633.500
 -18.60000038   8352254.000
 -18.40999985   8353881.000
 -18.21999931   8355514.500
 -18.03000069   8357159.000
 -17.84000015   8358813.500
 -17.64999962   8360477.000
 -17.45999908   8362141.000
 -17.27000046   8363803.000
 -17.07999992   8365456.000
 -16.88999939   8367099.500
 -16.70000076   8368732.500
 -16.51000023   8370360.000
 -16.31999969   8371987.500
 -16.12999916   8373618.500
 -15.93999958   8375256.000
 -15.75000000   8376901.500
 -15.56000042   8378553.500
 -15.36999989   8380210.500
 -15.18000031   8381863.500
 -14.98999977   8383510.500
 -14.80000019   8385148.000
 -14.60999966   8386775.000
 -14.42000008   8388395.500
 -14.22999954   8390015.000
 -14.03999996   8391636.000
 -13.85000038   8393264.000
 -13.65999985   8394901.000
 -13.47000027   8396548.000
 -13.27999973   8398204.000
 -13.09000015   8399865.000
 -12.89999962   8401526.000
 -12.71000004   8403180.000
 -12.52000046   8404825.000
 -12.32999992   8406461.000
 -12.14000034   8408093.000
 -11.94999981   8409720.000
 -11.76000023   8411349.000
 -11.56999969   8412984.000
 -11.38000011   8414624.000
 -11.18999958   8416269.000
 -11.00000000   8417914.000
 -10.81000042   8419557.000
 -10.61999989   8421193.000
 -10.43000031   8422818.000
 -10.23999977   8424430.000
 -10.05000019   8426029.000
 -9.859999657   8427624.000
 -9.670000076   8429215.000
 -9.479999542   8430807.000
 -9.289999962   8432408.000
 -9.100000381   8434016.000
 -8.909999847   8435635.000
 -8.720000267   8437263.000
 -8.529999733   8438894.000
 -8.340000153   8440526.000
 -8.149999619   8442154.000
 -7.960000038   8443776.000
 -7.769999981   8445390.000
 -7.579999924   8447001.000
 -7.389999866   8448612.000
 -7.199999809   8450227.000
 -7.010000229   8451851.000
 -6.820000172   8453484.000
 -6.630000114   8455128.000
 -6.440000057   8456773.000
 -6.250000000   8458418.000
 -6.059999943   8460055.000
 -5.869999886   8461681.000
 -5.679999828   8463293.000
 -5.489999771   8464894.000
 -5.300000191   8466486.000
 -5.110000134   8468077.000
 -4.920000076   8469674.000
 -4.730000019   8471281.000
 -4.539999962   8472896.000
 -4.349999905   8474520.000
 -4.159999847   8476145.000
 -3.970000029   8477765.000
 -3.779999971   8479376.000
 -3.589999914   8480973.000
 -3.400000095   8482559.000
 -3.210000038   8484138.000
 -3.019999981   8485717.000
 -2.829999924   8487304.000
 -2.640000105   8488905.000
 -2.450000048   8490522.000
 -2.259999990   8492153.000
 -2.069999933   8493789.000
 -1.879999995   8495426.000
 -1.690000057   8497052.000
 -1.500000000   8498663.000
 -1.309999943   8500258.000
 -1.120000005   8501843.000
 -0.9300000072   8503423.000
 -0.7400000095   8505007.000
 -0.5500000119   8506598.000
 -0.3600000143   8508205.000
 -0.1700000018   8509826.000
 0.1999999955E-01   8511455.000
 0.2099999934   8513082.000
 0.4000000060   8514703.000
 0.5899999738   8516308.000
 0.7799999714   8517901.000
 0.9700000286   8519478.000
 1.159999967   8521051.000
 1.350000024   8522627.000
 1.539999962   8524214.000
 1.730000019   8525818.000
 1.919999957   8527437.000
 2.109999895   8529067.000
 2.299999952   8530701.000
 2.490000010   8532326.000
 2.680000067   8533937.000
 2.869999886   8535529.000
 3.059999943   8537101.000
 3.250000000   8538663.000
 3.440000057   8540221.000
 3.630000114   8541787.000
 3.819999933   8543366.000
 4.010000229   8544963.000
 4.199999809   8546575.000
 4.389999866   8548194.000
 4.579999924   8549815.000
 4.769999981   8551425.000
 4.960000038   8553019.000
 5.150000095   8554597.000
 5.340000153   8556162.000
 5.530000210   8557724.000
 5.719999790   8559291.000
 5.909999847   8560873.000
 6.099999905   8562474.000
 6.289999962   8564092.000
 6.480000019   8565721.000
 6.670000076   8567351.000
 6.860000134   8568970.000
 7.050000191   8570573.000
 7.239999771   8572154.000
 7.429999828   8573718.000
 7.619999886   8575269.000
 7.809999943   8576817.000
 8.000000000   8578373.000
 8.189999580   8579938.000
 8.380000114   8581516.000
 8.569999695   8583103.000
 8.760000229   8584692.000
 8.949999809   8586277.000
 9.140000343   8587851.000
 9.329999924   8589408.000
 9.520000458   8590951.000
 9.710000038   8592486.000
 9.899999619   8594020.000
 10.09000015   8595563.000
 10.27999973   8597120.000
 10.47000027   8598694.000
 10.65999985   8600284.000
 10.85000038   8601883.000
 11.03999996   8603482.000
 11.22999954   8605074.000
 11.42000008   8606653.000
 11.60999966   8608213.000
 11.80000019   8609763.000
 11.98999977   8611304.000
 12.18000031   8612844.000
 12.36999989   8614392.000
 12.56000042   8615955.000
 12.75000000   8617532.000
 12.93999958   8619120.000
 13.13000011   8620714.000
 13.31999969   8622300.000
 13.51000023   8623873.000
 13.69999981   8625427.000
 13.89000034   8626963.000
 14.07999992   8628488.000
 14.27000046   8630011.000
 14.46000004   8631542.000
 14.64999962   8633088.000
 14.84000015   8634651.000
 15.02999973   8636231.000
 15.22000027   8637818.000
 15.40999985   8639403.000
 15.60000038   8640975.000
 15.78999996   8642532.000
 15.97999954   8644070.000
 16.17000008   8645594.000
 16.36000061   8647116.000
 16.54999924   8648644.000
 16.73999977   8650187.000
 16.93000031   8651748.000
 17.12000084   8653326.000
 17.30999947   8654912.000
 17.50000000   8656498.000
 17.69000053   8658072.000
 17.87999916   8659626.000
 18.06999969   8661164.000
 18.26000023   8662685.000
 18.45000076   8664200.000
 18.63999939   8665721.000
 18.82999992   8667252.000
 19.02000046   8668803.000
 19.20999908   8670368.000
 19.39999962   8671948.000
 19.59000015   8673531.000
 19.78000069   8675109.000
 19.96999931   8676677.000
 20.15999985   8678228.000
 20.35000038   8679767.000
 20.54000092   8681299.000
 20.72999954   8682829.000
 20.92000008   8684366.000
 21.11000061   8685916.000
 21.29999924   8687480.000
 21.48999977   8689056.000
 21.68000031   8690638.000
 21.87000084   8692219.000
 22.05999947   8693793.000
 22.25000000   8695352.000
 22.44000053   8696898.000
 22.62999916   8698431.000
 22.81999969   8699960.000
 23.01000023   8701491.000
 23.20000076   8703032.000
 23.38999939   8704588.000
 23.57999992   8706160.000
 23.77000046   8707744.000
 23.95999908   8709334.000
 24.14999962   8710923.000
 24.34000015   8712502.000
 24.53000069   8714069.000
 24.71999931   8715622.000
 24.90999985   8717164.000
 25.10000038   8718702.000
 25.29000092   8720246.000
 25.47999954   8721801.000
 25.67000008   8723371.000
 25.86000061   8724952.000
 26.04999924   8726538.000
 26.23999977   8728125.000
 26.43000031   8729699.000
 26.62000084   8731256.000
 26.80999947   8732794.000
