 -30.00000000   -3853636.000
 -29.80999947   -3854426.250
 -29.62000084   -3855221.000
 -29.43000031   -3856024.250
 -29.23999977   -3856833.750
 -29.04999924   -3857646.750
 -28.86000061   -3858461.000
 -28.67000008   -3859268.000
 -28.47999954   -3860062.750
 -28.29000092   -3860850.750
 -28.10000038   -3861636.750
 -27.90999985   -3862430.500
 -27.71999931   -3863238.250
 -27.53000069   -3864062.250
 -27.34000015   -3864896.000
 -27.14999962   -3865729.750
 -26.95999908   -3866551.750
 -26.77000046   -3867356.000
 -26.57999992   -3868146.250
 -26.38999939   -3868927.000
 -26.20000076   -3869707.750
 -26.01000023   -3870495.500
 -25.81999969   -3871292.750
 -25.62999916   -3872096.750
 -25.44000053   -3872902.250
 -25.25000000   -3873708.500
 -25.05999947   -3874513.750
 -24.87000084   -3875318.500
 -24.68000031   -3876124.000
 -24.48999977   -3876928.500
 -24.29999924   -3877732.000
 -24.11000061   -3878528.750
 -23.92000008   -3879318.250
 -23.72999954   -3880098.250
 -23.54000092   -3880876.250
 -23.35000038   -3881663.250
 -23.15999985   -3882466.250
 -22.96999931   -3883287.250
 -22.78000069   -3884121.000
 -22.59000015   -3884956.750
 -22.39999962   -3885781.500
 -22.20999908   -3886587.000
 -22.02000046   -3887372.250
 -21.82999992   -3888146.250
 -21.63999939   -3888923.500
 -21.45000076   -3889716.750
 -21.26000023   -3890533.500
 -21.06999969   -3891371.250
 -20.87999916   -3892219.500
 -20.69000053   -3893065.750
 -20.50000000   -3893898.000
 -20.30999947   -3894714.250
 -20.12000084   -3895510.750
 -19.93000031   -3896298.750
 -19.73999977   -3897085.250
 -19.54999924   -3897879.250
 -19.36000061   -3898679.500
 -19.17000008   -3899485.250
 -18.97999954   -3900291.500
 -18.79000092   -3901093.000
 -18.60000038   -3901893.500
 -18.40999985   -3902689.750
 -18.21999931   -3903486.250
 -18.03000069   -3904284.500
 -17.84000015   -3905078.750
 -17.64999962   -3905870.250
 -17.45999908   -3906654.000
 -17.27000046   -3907435.000
 -17.07999992   -3908221.250
 -16.88999939   -3909019.250
 -16.70000076   -3909831.250
 -16.51000023   -3910658.750
 -16.31999969   -3911495.000
 -16.12999916   -3912328.750
 -15.93999958   -3913153.250
 -15.75000000   -3913959.500
 -15.56000042   -3914752.750
 -15.36999989   -3915540.250
 -15.18000031   -3916332.500
 -14.98999977   -3917138.500
 -14.80000019   -3917960.500
 -14.60999966   -3918787.750
 -14.42000008   -3919617.250
 -14.22999954   -3920433.000
 -14.03999996   -3921233.000
 -13.85000038   -3922023.500
 -13.65999985   -3922810.000
 -13.47000027   -3923600.000
 -13.27999973   -3924396.250
 -13.09000015   -3925196.750
 -12.89999962   -3925996.000
 -12.71000004   -3926789.250
 -12.52000046   -3927578.750
 -12.32999992   -3928368.750
 -12.14000034   -3929168.500
 -11.94999981   -3929985.000
 -11.76000023   -3930815.500
 -11.56999969   -3931654.250
 -11.38000011   -3932495.750
 -11.18999958   -3933323.250
 -11.00000000   -3934131.750
 -10.81000042   -3934924.500
 -10.61999989   -3935709.000
 -10.43000031   -3936493.750
 -10.23999977   -3937288.750
 -10.05000019   -3938095.750
 -9.859999657   -3938911.500
 -9.670000076   -3939726.500
 -9.479999542   -3940535.500
 -9.289999962   -3941332.250
 -9.100000381   -3942120.250
 -8.909999847   -3942904.000
 -8.720000267   -3943686.750
 -8.529999733   -3944465.250
 -8.340000153   -3945239.750
 -8.149999619   -3946005.500
 -7.960000038   -3946761.750
 -7.769999981   -3947519.000
 -7.579999924   -3948279.750
 -7.389999866   -3949054.750
 -7.199999809   -3949845.250
 -7.010000229   -3950649.000
 -6.820000172   -3951456.500
 -6.630000114   -3952256.750
 -6.440000057   -3953040.500
 -6.250000000   -3953804.250
 -6.059999943   -3954549.250
 -5.869999886   -3955287.500
 -5.679999828   -3956036.000
 -5.489999771   -3956805.750
 -5.300000191   -3957599.250
 -5.110000134   -3958412.250
 -4.920000076   -3959231.500
 -4.730000019   -3960043.750
 -4.539999962   -3960842.750
 -4.349999905   -3961626.000
 -4.159999847   -3962397.250
 -3.970000029   -3963162.750
 -3.779999971   -3963930.000
 -3.589999914   -3964702.000
 -3.400000095   -3965482.750
 -3.210000038   -3966275.500
 -3.019999981   -3967081.000
 -2.829999924   -3967896.250
 -2.640000105   -3968719.750
 -2.450000048   -3969540.250
 -2.259999990   -3970351.250
 -2.069999933   -3971147.250
 -1.879999995   -3971921.500
 -1.690000057   -3972678.500
 -1.500000000   -3973427.250
 -1.309999943   -3974176.250
 -1.120000005   -3974941.250
 -0.9300000072   -3975733.500
 -0.7400000095   -3976551.750
 -0.5500000119   -3977387.250
 -0.3600000143   -3978222.000
 -0.1700000018   -3979039.000
 0.1999999955E-01   -3979829.750
 0.2099999934   -3980596.500
 0.4000000060   -3981346.500
 0.5899999738   -3982093.750
 0.7799999714   -3982851.000
 0.9700000286   -3983624.500
 1.159999967   -3984413.250
 1.350000024   -3985214.000
 1.539999962   -3986021.500
 1.730000019   -3986828.250
 1.919999957   -3987632.250
 2.109999895   -3988425.250
 2.299999952   -3989207.000
 2.490000010   -3989976.000
 2.680000067   -3990733.500
 2.869999886   -3991484.000
 3.059999943   -3992234.000
 3.250000000   -3992994.250
 3.440000057   -3993771.500
 3.630000114   -3994572.500
 3.819999933   -3995393.750
 4.010000229   -3996219.250
 4.199999809   -3997037.250
 4.389999866   -3997828.000
 4.579999924   -3998584.250
 4.769999981   -3999313.000
 4.960000038   -4000031.250
 5.150000095   -4000756.500
 5.340000153   -4001507.250
 5.530000210   -4002286.500
 5.719999790   -4003091.500
 5.909999847   -4003906.750
 6.099999905   -4004716.500
 6.289999962   -4005510.500
 6.480000019   -4006286.250
 6.670000076   -4007039.250
 6.860000134   -4007782.500
 7.050000191   -4008520.000
 7.239999771   -4009262.000
 7.429999828   -4010012.250
 7.619999886   -4010774.500
 7.809999943   -4011549.000
 8.000000000   -4012331.000
 8.189999580   -4013119.000
 8.380000114   -4013905.500
 8.569999695   -4014683.500
 8.760000229   -4015451.750
 8.949999809   -4016202.000
 9.140000343   -4016933.000
 9.329999924   -4017653.750
 9.520000458   -4018373.750
 9.710000038   -4019107.000
 9.899999619   -4019865.750
 10.09000015   -4020651.500
 10.27999973   -4021458.500
 10.47000027   -4022269.250
 10.65999985   -4023069.750
 10.85000038   -4023850.500
 11.03999996   -4024608.750
 11.22999954   -4025346.250
 11.42000008   -4026076.000
 11.60999966   -4026815.000
 11.80000019   -4027575.000
 11.98999977   -4028363.000
 12.18000031   -4029173.750
 12.36999989   -4029994.750
 12.56000042   -4030808.750
 12.75000000   -4031601.000
 12.93999958   -4032372.500
 13.13000011   -4033127.250
 13.31999969   -4033877.250
 13.51000023   -4034630.250
 13.69999981   -4035389.000
 13.89000034   -4036156.250
 14.07999992   -4036924.500
 14.27000046   -4037693.500
 14.46000004   -4038461.750
 14.64999962   -4039225.000
 14.84000015   -4039981.750
 15.02999973   -4040731.500
 15.22000027   -4041473.000
 15.40999985   -4042209.000
 15.60000038   -4042941.250
 15.78999996   -4043673.000
 15.97999954   -4044403.500
 16.17000008   -4045138.750
 16.36000061   -4045880.750
 16.54999924   -4046633.500
 16.73999977   -4047398.500
 16.93000031   -4048169.750
 17.12000084   -4048939.500
 17.30999947   -4049707.500
 17.50000000   -4050469.250
 17.69000053   -4051227.500
 17.87999916   -4051989.750
 18.06999969   -4052754.000
 18.26000023   -4053520.750
 18.45000076   -4054283.000
 18.63999939   -4055044.250
 18.82999992   -4055805.250
 19.02000046   -4056572.250
 19.20999908   -4057345.500
 19.39999962   -4058127.750
 19.59000015   -4058911.500
 19.78000069   -4059694.250
 19.96999931   -4060467.750
 20.15999985   -4061231.500
 20.35000038   -4061981.750
 20.54000092   -4062724.250
 20.72999954   -4063467.750
 20.92000008   -4064223.750
 21.11000061   -4064995.500
 21.29999924   -4065785.000
 21.48999977   -4066579.000
 21.68000031   -4067365.000
 21.87000084   -4068131.250
 22.05999947   -4068871.500
 22.25000000   -4069593.250
 22.44000053   -4070306.750
 22.62999916   -4071024.250
 22.81999969   -4071748.250
 23.01000023   -4072483.500
 23.20000076   -4073227.500
 23.38999939   -4073976.750
 23.57999992   -4074727.000
 23.77000046   -4075477.000
 23.95999908   -4076224.750
 24.14999962   -4076965.250
 24.34000015   -4077700.750
 24.53000069   -4078426.750
 24.71999931   -4079147.500
 24.90999985   -4079862.000
 25.10000038   -4080577.000
 25.29000092   -4081300.250
 25.47999954   -4082039.000
 25.67000008   -4082795.750
 25.86000061   -4083567.750
 26.04999924   -4084343.250
 26.23999977   -4085104.250
 26.43000031   -4085844.750
 26.62000084   -4086557.750
 26.80999947   -4087257.250
