 -30.00000000   -140641.2969
 -29.80999947   -140727.4844
 -29.62000084   -140854.8594
 -29.43000031   -140997.0312
 -29.23999977   -141126.5000
 -29.04999924   -141220.9375
 -28.86000061   -141277.2031
 -28.67000008   -141302.1875
 -28.47999954   -141315.3750
 -28.29000092   -141332.9375
 -28.10000038   -141371.9375
 -27.90999985   -141439.1094
 -27.71999931   -141532.8750
 -27.53000069   -141639.0312
 -27.34000015   -141746.7344
 -27.14999962   -141843.1094
 -26.95999908   -141922.9844
 -26.77000046   -141988.6094
 -26.57999992   -142043.4844
 -26.38999939   -142095.3281
 -26.20000076   -142148.4375
 -26.01000023   -142205.3594
 -25.81999969   -142271.6250
 -25.62999916   -142346.5000
 -25.44000053   -142428.7500
 -25.25000000   -142519.3125
 -25.05999947   -142616.9375
 -24.87000084   -142714.6250
 -24.68000031   -142809.5938
 -24.48999977   -142893.2344
 -24.29999924   -142960.3906
 -24.11000061   -143004.0312
 -23.92000008   -143030.4844
 -23.72999954   -143043.8438
 -23.54000092   -143059.4062
 -23.35000038   -143089.3281
 -23.15999985   -143143.0312
 -22.96999931   -143222.6719
 -22.78000069   -143320.3125
 -22.59000015   -143421.4062
 -22.39999962   -143509.9688
 -22.20999908   -143569.4844
 -22.02000046   -143591.2656
 -21.82999992   -143579.4688
 -21.63999939   -143545.7969
 -21.45000076   -143509.0781
 -21.26000023   -143495.2500
 -21.06999969   -143515.6406
 -20.87999916   -143573.4688
 -20.69000053   -143662.5781
 -20.50000000   -143761.0469
 -20.30999947   -143847.2344
 -20.12000084   -143900.4844
 -19.93000031   -143914.5000
 -19.73999977   -143893.7344
 -19.54999924   -143854.3594
 -19.36000061   -143819.1562
 -19.17000008   -143807.7031
 -18.97999954   -143835.4062
 -18.79000092   -143901.0781
 -18.60000038   -143992.7969
 -18.40999985   -144087.5938
 -18.21999931   -144165.7188
 -18.03000069   -144208.1875
 -17.84000015   -144206.3906
 -17.64999962   -144166.5312
 -17.45999908   -144101.9844
 -17.27000046   -144036.2188
 -17.07999992   -143986.2969
 -16.88999939   -143969.4219
 -16.70000076   -143987.3125
 -16.51000023   -144035.8281
 -16.31999969   -144099.7969
 -16.12999916   -144163.6719
 -15.93999958   -144207.3281
 -15.75000000   -144224.1875
 -15.56000042   -144209.9688
 -15.36999989   -144172.2188
 -15.18000031   -144124.3750
 -14.98999977   -144079.6094
 -14.80000019   -144050.6094
 -14.60999966   -144045.8906
 -14.42000008   -144065.4688
 -14.22999954   -144103.9219
 -14.03999996   -144149.3750
 -13.85000038   -144186.2656
 -13.65999985   -144203.7812
 -13.47000027   -144191.7500
 -13.27999973   -144151.2656
 -13.09000015   -144091.8594
 -12.89999962   -144024.3438
 -12.71000004   -143966.3906
 -12.52000046   -143930.2031
 -12.32999992   -143925.1094
 -12.14000034   -143951.7656
 -11.94999981   -144001.5938
 -11.76000023   -144060.8281
 -11.56999969   -144110.9688
 -11.38000011   -144135.4062
 -11.18999958   -144128.0156
 -11.00000000   -144088.4844
 -10.81000042   -144029.6875
 -10.61999989   -143966.5000
 -10.43000031   -143924.3125
 -10.23999977   -143915.7812
 -10.05000019   -143947.2656
 -9.859999657   -144013.1562
 -9.670000076   -144092.9844
 -9.479999542   -144165.2656
 -9.289999962   -144204.2656
 -9.100000381   -144200.5625
 -8.909999847   -144150.7500
 -8.720000267   -144072.1719
 -8.529999733   -143986.0625
 -8.340000153   -143918.0156
 -8.149999619   -143885.4062
 -7.960000038   -143891.4062
 -7.769999981   -143930.2812
 -7.579999924   -143982.1562
 -7.389999866   -144028.2188
 -7.199999809   -144050.5781
 -7.010000229   -144040.0625
 -6.820000172   -144003.0312
 -6.630000114   -143951.6562
 -6.440000057   -143898.7188
 -6.250000000   -143861.2344
 -6.059999943   -143844.9844
 -5.869999886   -143853.7188
 -5.679999828   -143883.4844
 -5.489999771   -143924.5469
 -5.300000191   -143969.1094
 -5.110000134   -144008.8906
 -4.920000076   -144038.3125
 -4.730000019   -144053.8906
 -4.539999962   -144057.0938
 -4.349999905   -144044.4062
 -4.159999847   -144018.3594
 -3.970000029   -143987.9375
 -3.779999971   -143959.7969
 -3.589999914   -143943.9062
 -3.400000095   -143947.5000
 -3.210000038   -143970.3125
 -3.019999981   -144008.9375
 -2.829999924   -144047.5000
 -2.640000105   -144076.0938
 -2.450000048   -144077.1719
 -2.259999990   -144046.3594
 -2.069999933   -143988.8906
 -1.879999995   -143918.5000
 -1.690000057   -143856.7031
 -1.500000000   -143822.9219
 -1.309999943   -143830.0312
 -1.120000005   -143874.0781
 -0.9300000072   -143946.2344
 -0.7400000095   -144021.7969
 -0.5500000119   -144079.0625
 -0.3600000143   -144101.4688
 -0.1700000018   -144085.3125
 0.1999999955E-01   -144033.0469
 0.2099999934   -143966.7031
 0.4000000060   -143905.4375
 0.5899999738   -143868.8906
 0.7799999714   -143869.0625
 0.9700000286   -143899.9062
 1.159999967   -143951.5625
 1.350000024   -144005.7500
 1.539999962   -144044.0938
 1.730000019   -144052.4375
 1.919999957   -144025.4688
 2.109999895   -143968.1094
 2.299999952   -143898.1719
 2.490000010   -143833.3438
 2.680000067   -143794.0312
 2.869999886   -143791.0625
 3.059999943   -143826.6250
 3.250000000   -143889.4062
 3.440000057   -143965.2188
 3.630000114   -144031.7656
 3.819999933   -144077.8125
 4.010000229   -144092.9688
 4.199999809   -144074.8125
 4.389999866   -144034.7031
 4.579999924   -143984.5312
 4.769999981   -143939.8906
 4.960000038   -143913.2344
 5.150000095   -143909.7656
 5.340000153   -143924.8281
 5.530000210   -143955.3750
 5.719999790   -143989.3750
 5.909999847   -144016.1406
 6.099999905   -144028.4531
 6.289999962   -144020.7656
 6.480000019   -143994.7656
 6.670000076   -143956.5625
 6.860000134   -143920.1406
 7.050000191   -143897.9219
 7.239999771   -143898.3750
 7.429999828   -143930.5938
 7.619999886   -143987.5625
 7.809999943   -144058.9062
 8.000000000   -144131.5625
 8.189999580   -144190.6250
 8.380000114   -144226.9531
 8.569999695   -144232.3594
 8.760000229   -144209.7031
 8.949999809   -144168.9062
 9.140000343   -144121.5312
 9.329999924   -144080.7031
 9.520000458   -144054.3750
 9.710000038   -144044.3125
 9.899999619   -144048.0625
 10.09000015   -144058.2656
 10.27999973   -144065.7344
 10.47000027   -144063.9688
 10.65999985   -144051.9844
 10.85000038   -144026.7656
 11.03999996   -143997.7188
 11.22999954   -143969.5312
 11.42000008   -143954.2031
 11.60999966   -143956.8750
 11.80000019   -143978.5000
 11.98999977   -144018.8125
 12.18000031   -144068.6562
 12.36999989   -144120.1875
 12.56000042   -144162.1719
 12.75000000   -144187.9844
 12.93999958   -144192.0938
 13.13000011   -144168.4844
 13.31999969   -144125.3438
 13.51000023   -144065.6719
 13.69999981   -144005.1406
 13.89000034   -143949.4219
 14.07999992   -143911.5781
 14.27000046   -143892.4062
 14.46000004   -143891.3438
 14.64999962   -143903.7031
 14.84000015   -143921.0000
 15.02999973   -143936.5625
 15.22000027   -143945.1562
 15.40999985   -143944.3281
 15.60000038   -143939.2188
 15.78999996   -143931.4844
 15.97999954   -143928.9531
 16.17000008   -143940.0938
 16.36000061   -143964.3906
 16.54999924   -144002.6094
 16.73999977   -144050.6562
 16.93000031   -144098.2969
 17.12000084   -144140.7188
 17.30999947   -144167.4219
 17.50000000   -144172.8750
 17.69000053   -144159.3750
 17.87999916   -144127.0469
 18.06999969   -144086.3125
 18.26000023   -144052.3125
 18.45000076   -144037.1562
 18.63999939   -144048.9688
 18.82999992   -144092.0156
 19.02000046   -144159.6406
 19.20999908   -144236.0000
 19.39999962   -144303.0625
 19.59000015   -144342.7344
 19.78000069   -144346.1094
 19.96999931   -144315.7969
 20.15999985   -144265.2969
 20.35000038   -144219.4062
 20.54000092   -144193.8750
 20.72999954   -144205.6094
 20.92000008   -144248.5938
 21.11000061   -144314.6406
 21.29999924   -144379.1250
 21.48999977   -144417.7969
 21.68000031   -144414.5625
 21.87000084   -144365.7031
 22.05999947   -144284.7969
 22.25000000   -144190.8594
 22.44000053   -144110.4531
 22.62999916   -144062.6719
 22.81999969   -144058.7656
 23.01000023   -144092.8594
 23.20000076   -144151.2812
 23.38999939   -144213.1875
 23.57999992   -144259.6406
 23.77000046   -144279.1094
 23.95999908   -144267.7344
 24.14999962   -144230.2656
 24.34000015   -144184.0000
 24.53000069   -144138.6562
 24.71999931   -144109.0625
 24.90999985   -144100.3594
 25.10000038   -144115.2812
 25.29000092   -144148.2031
 25.47999954   -144190.9844
 25.67000008   -144236.1406
 25.86000061   -144271.7344
 26.04999924   -144291.1719
 26.23999977   -144291.9062
 26.43000031   -144275.8750
 26.62000084   -144250.6875
 26.80999947   -144223.9375
