 -30.00000000   10341586.00
 -29.80999947   10343696.00
 -29.62000084   10345806.00
 -29.43000031   10347916.00
 -29.23999977   10350027.00
 -29.04999924   10352144.00
 -28.86000061   10354265.00
 -28.67000008   10356385.00
 -28.47999954   10358504.00
 -28.29000092   10360616.00
 -28.10000038   10362725.00
 -27.90999985   10364833.00
 -27.71999931   10366944.00
 -27.53000069   10369057.00
 -27.34000015   10371170.00
 -27.14999962   10373287.00
 -26.95999908   10375401.00
 -26.77000046   10377521.00
 -26.57999992   10379643.00
 -26.38999939   10381761.00
 -26.20000076   10383874.00
 -26.01000023   10385981.00
 -25.81999969   10388086.00
 -25.62999916   10390199.00
 -25.44000053   10392323.00
 -25.25000000   10394448.00
 -25.05999947   10396570.00
 -24.87000084   10398689.00
 -24.68000031   10400808.00
 -24.48999977   10402930.00
 -24.29999924   10405059.00
 -24.11000061   10407191.00
 -23.92000008   10409317.00
 -23.72999954   10411436.00
 -23.54000092   10413551.00
 -23.35000038   10415667.00
 -23.15999985   10417790.00
 -22.96999931   10419908.00
 -22.78000069   10422018.00
 -22.59000015   10424121.00
 -22.39999962   10426219.00
 -22.20999908   10428322.00
 -22.02000046   10430427.00
 -21.82999992   10432531.00
 -21.63999939   10434629.00
 -21.45000076   10436726.00
 -21.26000023   10438823.00
 -21.06999969   10440930.00
 -20.87999916   10443050.00
 -20.69000053   10445171.00
 -20.50000000   10447289.00
 -20.30999947   10449399.00
 -20.12000084   10451504.00
 -19.93000031   10453610.00
 -19.73999977   10455714.00
 -19.54999924   10457817.00
 -19.36000061   10459914.00
 -19.17000008   10462010.00
 -18.97999954   10464110.00
 -18.79000092   10466217.00
 -18.60000038   10468332.00
 -18.40999985   10470450.00
 -18.21999931   10472565.00
 -18.03000069   10474676.00
 -17.84000015   10476785.00
 -17.64999962   10478891.00
 -17.45999908   10481001.00
 -17.27000046   10483112.00
 -17.07999992   10485219.00
 -16.88999939   10487323.00
 -16.70000076   10489428.00
 -16.51000023   10491537.00
 -16.31999969   10493651.00
 -16.12999916   10495769.00
 -15.93999958   10497890.00
 -15.75000000   10500009.00
 -15.56000042   10502127.00
 -15.36999989   10504247.00
 -15.18000031   10506366.00
 -14.98999977   10508486.00
 -14.80000019   10510606.00
 -14.60999966   10512726.00
 -14.42000008   10514845.00
 -14.22999954   10516963.00
 -14.03999996   10519079.00
 -13.85000038   10521197.00
 -13.65999985   10523312.00
 -13.47000027   10525427.00
 -13.27999973   10527538.00
 -13.09000015   10529641.00
 -12.89999962   10531742.00
 -12.71000004   10533841.00
 -12.52000046   10535950.00
 -12.32999992   10538069.00
 -12.14000034   10540193.00
 -11.94999981   10542317.00
 -11.76000023   10544435.00
 -11.56999969   10546550.00
 -11.38000011   10548669.00
 -11.18999958   10550795.00
 -11.00000000   10552929.00
 -10.81000042   10555061.00
 -10.61999989   10557191.00
 -10.43000031   10559319.00
 -10.23999977   10561456.00
 -10.05000019   10563603.00
 -9.859999657   10565749.00
 -9.670000076   10567888.00
 -9.479999542   10570014.00
 -9.289999962   10572133.00
 -9.100000381   10574262.00
 -8.909999847   10576403.00
 -8.720000267   10578555.00
 -8.529999733   10580705.00
 -8.340000153   10582845.00
 -8.149999619   10584980.00
 -7.960000038   10587119.00
 -7.769999981   10589275.00
 -7.579999924   10591444.00
 -7.389999866   10593612.00
 -7.199999809   10595769.00
 -7.010000229   10597919.00
 -6.820000172   10600071.00
 -6.630000114   10602234.00
 -6.440000057   10604408.00
 -6.250000000   10606576.00
 -6.059999943   10608729.00
 -5.869999886   10610878.00
 -5.679999828   10613034.00
 -5.489999771   10615209.00
 -5.300000191   10617394.00
 -5.110000134   10619576.00
 -4.920000076   10621740.00
 -4.730000019   10623886.00
 -4.539999962   10626029.00
 -4.349999905   10628180.00
 -4.159999847   10630337.00
 -3.970000029   10632492.00
 -3.779999971   10634638.00
 -3.589999914   10636772.00
 -3.400000095   10638905.00
 -3.210000038   10641048.00
 -3.019999981   10643199.00
 -2.829999924   10645342.00
 -2.640000105   10647465.00
 -2.450000048   10649577.00
 -2.259999990   10651689.00
 -2.069999933   10653814.00
 -1.879999995   10655953.00
 -1.690000057   10658092.00
 -1.500000000   10660218.00
 -1.309999943   10662328.00
 -1.120000005   10664437.00
 -0.9300000072   10666561.00
 -0.7400000095   10668700.00
 -0.5500000119   10670838.00
 -0.3600000143   10672963.00
 -0.1700000018   10675070.00
 0.1999999955E-01   10677178.00
 0.2099999934   10679299.00
 0.4000000060   10681438.00
 0.5899999738   10683588.00
 0.7799999714   10685726.00
 0.9700000286   10687856.00
 1.159999967   10689984.00
 1.350000024   10692122.00
 1.539999962   10694277.00
 1.730000019   10696436.00
 1.919999957   10698581.00
 2.109999895   10700710.00
 2.299999952   10702837.00
 2.490000010   10704972.00
 2.680000067   10707122.00
 2.869999886   10709273.00
 3.059999943   10711410.00
 3.250000000   10713524.00
 3.440000057   10715629.00
 3.630000114   10717740.00
 3.819999933   10719868.00
 4.010000229   10722004.00
 4.199999809   10724137.00
 4.389999866   10726258.00
 4.579999924   10728376.00
 4.769999981   10730501.00
 4.960000038   10732640.00
 5.150000095   10734786.00
 5.340000153   10736928.00
 5.530000210   10739063.00
 5.719999790   10741201.00
 5.909999847   10743351.00
 6.099999905   10745516.00
 6.289999962   10747690.00
 6.480000019   10749857.00
 6.670000076   10752012.00
 6.860000134   10754153.00
 7.050000191   10756295.00
 7.239999771   10758439.00
 7.429999828   10760588.00
 7.619999886   10762733.00
 7.809999943   10764868.00
 8.000000000   10766996.00
 8.189999580   10769123.00
 8.380000114   10771250.00
 8.569999695   10773378.00
 8.760000229   10775502.00
 8.949999809   10777619.00
 9.140000343   10779733.00
 9.329999924   10781851.00
 9.520000458   10783983.00
 9.710000038   10786129.00
 9.899999619   10788283.00
 10.09000015   10790436.00
 10.27999973   10792579.00
 10.47000027   10794708.00
 10.65999985   10796831.00
 10.85000038   10798955.00
 11.03999996   10801088.00
 11.22999954   10803226.00
 11.42000008   10805362.00
 11.60999966   10807492.00
 11.80000019   10809616.00
 11.98999977   10811738.00
 12.18000031   10813869.00
 12.36999989   10816004.00
 12.56000042   10818141.00
 12.75000000   10820269.00
 12.93999958   10822395.00
 13.13000011   10824527.00
 13.31999969   10826675.00
 13.51000023   10828834.00
 13.69999981   10830989.00
 13.89000034   10833124.00
 14.07999992   10835247.00
 14.27000046   10837372.00
 14.46000004   10839513.00
 14.64999962   10841676.00
 14.84000015   10843834.00
 15.02999973   10845980.00
 15.22000027   10848105.00
 15.40999985   10850225.00
 15.60000038   10852354.00
 15.78999996   10854490.00
 15.97999954   10856616.00
 16.17000008   10858719.00
 16.36000061   10860805.00
 16.54999924   10862893.00
 16.73999977   10865006.00
 16.93000031   10867141.00
 17.12000084   10869275.00
 17.30999947   10871387.00
 17.50000000   10873483.00
 17.69000053   10875583.00
 17.87999916   10877704.00
 18.06999969   10879848.00
 18.26000023   10881986.00
 18.45000076   10884102.00
 18.63999939   10886199.00
 18.82999992   10888301.00
 19.02000046   10890426.00
 19.20999908   10892574.00
 19.39999962   10894720.00
 19.59000015   10896845.00
 19.78000069   10898948.00
 19.96999931   10901053.00
 20.15999985   10903180.00
 20.35000038   10905330.00
 20.54000092   10907482.00
 20.72999954   10909614.00
 20.92000008   10911729.00
 21.11000061   10913847.00
 21.29999924   10915984.00
 21.48999977   10918143.00
 21.68000031   10920296.00
 21.87000084   10922428.00
 22.05999947   10924540.00
 22.25000000   10926650.00
 22.44000053   10928776.00
 22.62999916   10930923.00
 22.81999969   10933072.00
 23.01000023   10935204.00
 23.20000076   10937324.00
 23.38999939   10939445.00
 23.57999992   10941580.00
 23.77000046   10943726.00
 23.95999908   10945869.00
 24.14999962   10947993.00
 24.34000015   10950101.00
 24.53000069   10952211.00
 24.71999931   10954332.00
 24.90999985   10956468.00
 25.10000038   10958596.00
 25.29000092   10960708.00
 25.47999954   10962802.00
 25.67000008   10964893.00
 25.86000061   10966998.00
 26.04999924   10969113.00
 26.23999977   10971233.00
 26.43000031   10973344.00
 26.62000084   10975446.00
 26.80999947   10977549.00
