 -30.00000000   9253193.000
 -29.80999947   9255086.000
 -29.62000084   9256981.000
 -29.43000031   9258876.000
 -29.23999977   9260767.000
 -29.04999924   9262660.000
 -28.86000061   9264554.000
 -28.67000008   9266453.000
 -28.47999954   9268351.000
 -28.29000092   9270247.000
 -28.10000038   9272141.000
 -27.90999985   9274034.000
 -27.71999931   9275930.000
 -27.53000069   9277830.000
 -27.34000015   9279729.000
 -27.14999962   9281626.000
 -26.95999908   9283524.000
 -26.77000046   9285417.000
 -26.57999992   9287314.000
 -26.38999939   9289212.000
 -26.20000076   9291110.000
 -26.01000023   9293007.000
 -25.81999969   9294903.000
 -25.62999916   9296798.000
 -25.44000053   9298694.000
 -25.25000000   9300591.000
 -25.05999947   9302492.000
 -24.87000084   9304389.000
 -24.68000031   9306285.000
 -24.48999977   9308177.000
 -24.29999924   9310072.000
 -24.11000061   9311967.000
 -23.92000008   9313867.000
 -23.72999954   9315765.000
 -23.54000092   9317660.000
 -23.35000038   9319556.000
 -23.15999985   9321449.000
 -22.96999931   9323347.000
 -22.78000069   9325248.000
 -22.59000015   9327148.000
 -22.39999962   9329044.000
 -22.20999908   9330938.000
 -22.02000046   9332830.000
 -21.82999992   9334727.000
 -21.63999939   9336630.000
 -21.45000076   9338531.000
 -21.26000023   9340430.000
 -21.06999969   9342324.000
 -20.87999916   9344220.000
 -20.69000053   9346120.000
 -20.50000000   9348021.000
 -20.30999947   9349923.000
 -20.12000084   9351822.000
 -19.93000031   9353718.000
 -19.73999977   9355614.000
 -19.54999924   9357513.000
 -19.36000061   9359418.000
 -19.17000008   9361324.000
 -18.97999954   9363226.000
 -18.79000092   9365126.000
 -18.60000038   9367023.000
 -18.40999985   9368924.000
 -18.21999931   9370828.000
 -18.03000069   9372733.000
 -17.84000015   9374636.000
 -17.64999962   9376538.000
 -17.45999908   9378442.000
 -17.27000046   9380346.000
 -17.07999992   9382254.000
 -16.88999939   9384161.000
 -16.70000076   9386069.000
 -16.51000023   9387972.000
 -16.31999969   9389876.000
 -16.12999916   9391783.000
 -15.93999958   9393694.000
 -15.75000000   9395604.000
 -15.56000042   9397512.000
 -15.36999989   9399419.000
 -15.18000031   9401324.000
 -14.98999977   9403232.000
 -14.80000019   9405141.000
 -14.60999966   9407048.000
 -14.42000008   9408956.000
 -14.22999954   9410859.000
 -14.03999996   9412760.000
 -13.85000038   9414663.000
 -13.65999985   9416569.000
 -13.47000027   9418475.000
 -13.27999973   9420385.000
 -13.09000015   9422291.000
 -12.89999962   9424194.000
 -12.71000004   9426100.000
 -12.52000046   9428008.000
 -12.32999992   9429919.000
 -12.14000034   9431826.000
 -11.94999981   9433731.000
 -11.76000023   9435632.000
 -11.56999969   9437535.000
 -11.38000011   9439440.000
 -11.18999958   9441349.000
 -11.00000000   9443255.000
 -10.81000042   9445158.000
 -10.61999989   9447057.000
 -10.43000031   9448955.000
 -10.23999977   9450857.000
 -10.05000019   9452762.000
 -9.859999657   9454666.000
 -9.670000076   9456570.000
 -9.479999542   9458472.000
 -9.289999962   9460375.000
 -9.100000381   9462279.000
 -8.909999847   9464185.000
 -8.720000267   9466090.000
 -8.529999733   9467994.000
 -8.340000153   9469893.000
 -8.149999619   9471792.000
 -7.960000038   9473694.000
 -7.769999981   9475598.000
 -7.579999924   9477503.000
 -7.389999866   9479408.000
 -7.199999809   9481310.000
 -7.010000229   9483212.000
 -6.820000172   9485118.000
 -6.630000114   9487026.000
 -6.440000057   9488936.000
 -6.250000000   9490844.000
 -6.059999943   9492747.000
 -5.869999886   9494648.000
 -5.679999828   9496552.000
 -5.489999771   9498456.000
 -5.300000191   9500362.000
 -5.110000134   9502268.000
 -4.920000076   9504172.000
 -4.730000019   9506079.000
 -4.539999962   9507988.000
 -4.349999905   9509902.000
 -4.159999847   9511819.000
 -3.970000029   9513735.000
 -3.779999971   9515649.000
 -3.589999914   9517562.000
 -3.400000095   9519473.000
 -3.210000038   9521389.000
 -3.019999981   9523307.000
 -2.829999924   9525225.000
 -2.640000105   9527141.000
 -2.450000048   9529058.000
 -2.259999990   9530977.000
 -2.069999933   9532897.000
 -1.879999995   9534819.000
 -1.690000057   9536741.000
 -1.500000000   9538659.000
 -1.309999943   9540574.000
 -1.120000005   9542487.000
 -0.9300000072   9544405.000
 -0.7400000095   9546324.000
 -0.5500000119   9548245.000
 -0.3600000143   9550162.000
 -0.1700000018   9552078.000
 0.1999999955E-01   9553993.000
 0.2099999934   9555911.000
 0.4000000060   9557830.000
 0.5899999738   9559751.000
 0.7799999714   9561669.000
 0.9700000286   9563584.000
 1.159999967   9565499.000
 1.350000024   9567415.000
 1.539999962   9569335.000
 1.730000019   9571260.000
 1.919999957   9573183.000
 2.109999895   9575099.000
 2.299999952   9577014.000
 2.490000010   9578931.000
 2.680000067   9580854.000
 2.869999886   9582778.000
 3.059999943   9584700.000
 3.250000000   9586617.000
 3.440000057   9588530.000
 3.630000114   9590446.000
 3.819999933   9592370.000
 4.010000229   9594297.000
 4.199999809   9596224.000
 4.389999866   9598144.000
 4.579999924   9600059.000
 4.769999981   9601975.000
 4.960000038   9603896.000
 5.150000095   9605821.000
 5.340000153   9607738.000
 5.530000210   9609652.000
 5.719999790   9611558.000
 5.909999847   9613469.000
 6.099999905   9615390.000
 6.289999962   9617317.000
 6.480000019   9619244.000
 6.670000076   9621161.000
 6.860000134   9623067.000
 7.050000191   9624974.000
 7.239999771   9626890.000
 7.429999828   9628812.000
 7.619999886   9630733.000
 7.809999943   9632648.000
 8.000000000   9634556.000
 8.189999580   9636468.000
 8.380000114   9638386.000
 8.569999695   9640309.000
 8.760000229   9642231.000
 8.949999809   9644144.000
 9.140000343   9646054.000
 9.329999924   9647963.000
 9.520000458   9649884.000
 9.710000038   9651810.000
 9.899999619   9653737.000
 10.09000015   9655654.000
 10.27999973   9657564.000
 10.47000027   9659475.000
 10.65999985   9661392.000
 10.85000038   9663319.000
 11.03999996   9665243.000
 11.22999954   9667162.000
 11.42000008   9669069.000
 11.60999966   9670978.000
 11.80000019   9672896.000
 11.98999977   9674824.000
 12.18000031   9676750.000
 12.36999989   9678670.000
 12.56000042   9680583.000
 12.75000000   9682499.000
 12.93999958   9684426.000
 13.13000011   9686362.000
 13.31999969   9688298.000
 13.51000023   9690223.000
 13.69999981   9692137.000
 13.89000034   9694052.000
 14.07999992   9695974.000
 14.27000046   9697904.000
 14.46000004   9699833.000
 14.64999962   9701754.000
 14.84000015   9703668.000
 15.02999973   9705583.000
 15.22000027   9707507.000
 15.40999985   9709438.000
 15.60000038   9711373.000
 15.78999996   9713300.000
 15.97999954   9715219.000
 16.17000008   9717140.000
 16.36000061   9719066.000
 16.54999924   9721000.000
 16.73999977   9722936.000
 16.93000031   9724865.000
 17.12000084   9726786.000
 17.30999947   9728704.000
 17.50000000   9730629.000
 17.69000053   9732561.000
 17.87999916   9734494.000
 18.06999969   9736422.000
 18.26000023   9738343.000
 18.45000076   9740264.000
 18.63999939   9742189.000
 18.82999992   9744121.000
 19.02000046   9746055.000
 19.20999908   9747979.000
 19.39999962   9749898.000
 19.59000015   9751817.000
 19.78000069   9753738.000
 19.96999931   9755668.000
 20.15999985   9757598.000
 20.35000038   9759526.000
 20.54000092   9761448.000
 20.72999954   9763366.000
 20.92000008   9765288.000
 21.11000061   9767218.000
 21.29999924   9769148.000
 21.48999977   9771077.000
 21.68000031   9773002.000
 21.87000084   9774922.000
 22.05999947   9776844.000
 22.25000000   9778774.000
 22.44000053   9780704.000
 22.62999916   9782633.000
 22.81999969   9784557.000
 23.01000023   9786479.000
 23.20000076   9788406.000
 23.38999939   9790336.000
 23.57999992   9792264.000
 23.77000046   9794189.000
 23.95999908   9796109.000
 24.14999962   9798028.000
 24.34000015   9799949.000
 24.53000069   9801877.000
 24.71999931   9803803.000
 24.90999985   9805723.000
 25.10000038   9807641.000
 25.29000092   9809563.000
 25.47999954   9811489.000
 25.67000008   9813417.000
 25.86000061   9815345.000
 26.04999924   9817265.000
 26.23999977   9819180.000
 26.43000031   9821098.000
 26.62000084   9823018.000
 26.80999947   9824936.000
