 -30.00000000   1618849.625
 -29.80999947   1619183.375
 -29.62000084   1619520.250
 -29.43000031   1619859.125
 -29.23999977   1620197.750
 -29.04999924   1620534.000
 -28.86000061   1620869.500
 -28.67000008   1621201.500
 -28.47999954   1621533.375
 -28.29000092   1621865.750
 -28.10000038   1622198.375
 -27.90999985   1622533.875
 -27.71999931   1622872.625
 -27.53000069   1623213.000
 -27.34000015   1623553.125
 -27.14999962   1623895.250
 -26.95999908   1624234.500
 -26.77000046   1624573.125
 -26.57999992   1624906.875
 -26.38999939   1625238.375
 -26.20000076   1625569.000
 -26.01000023   1625897.625
 -25.81999969   1626230.625
 -25.62999916   1626562.500
 -25.44000053   1626897.625
 -25.25000000   1627235.625
 -25.05999947   1627575.250
 -24.87000084   1627915.000
 -24.68000031   1628251.000
 -24.48999977   1628583.375
 -24.29999924   1628913.875
 -24.11000061   1629240.625
 -23.92000008   1629565.750
 -23.72999954   1629890.750
 -23.54000092   1630219.250
 -23.35000038   1630547.375
 -23.15999985   1630880.000
 -22.96999931   1631214.125
 -22.78000069   1631548.375
 -22.59000015   1631879.625
 -22.39999962   1632207.250
 -22.20999908   1632531.500
 -22.02000046   1632851.250
 -21.82999992   1633170.250
 -21.63999939   1633487.250
 -21.45000076   1633806.125
 -21.26000023   1634127.375
 -21.06999969   1634451.125
 -20.87999916   1634776.750
 -20.69000053   1635102.500
 -20.50000000   1635428.375
 -20.30999947   1635751.500
 -20.12000084   1636070.625
 -19.93000031   1636385.125
 -19.73999977   1636696.500
 -19.54999924   1637006.750
 -19.36000061   1637318.875
 -19.17000008   1637633.750
 -18.97999954   1637954.375
 -18.79000092   1638278.125
 -18.60000038   1638605.875
 -18.40999985   1638933.125
 -18.21999931   1639260.125
 -18.03000069   1639581.625
 -17.84000015   1639898.875
 -17.64999962   1640212.125
 -17.45999908   1640522.375
 -17.27000046   1640833.375
 -17.07999992   1641146.875
 -16.88999939   1641467.375
 -16.70000076   1641792.000
 -16.51000023   1642120.375
 -16.31999969   1642450.500
 -16.12999916   1642779.750
 -15.93999958   1643103.625
 -15.75000000   1643421.500
 -15.56000042   1643732.500
 -15.36999989   1644040.750
 -15.18000031   1644348.250
 -14.98999977   1644658.375
 -14.80000019   1644976.000
 -14.60999966   1645300.125
 -14.42000008   1645628.375
 -14.22999954   1645959.750
 -14.03999996   1646290.875
 -13.85000038   1646618.125
 -13.65999985   1646938.250
 -13.47000027   1647249.750
 -13.27999973   1647556.125
 -13.09000015   1647860.000
 -12.89999962   1648165.625
 -12.71000004   1648474.750
 -12.52000046   1648793.875
 -12.32999992   1649121.250
 -12.14000034   1649452.750
 -11.94999981   1649786.125
 -11.76000023   1650114.250
 -11.56999969   1650434.625
 -11.38000011   1650744.125
 -11.18999958   1651046.375
 -11.00000000   1651343.500
 -10.81000042   1651643.125
 -10.61999989   1651948.000
 -10.43000031   1652264.125
 -10.23999977   1652588.625
 -10.05000019   1652918.125
 -9.859999657   1653249.250
 -9.670000076   1653576.750
 -9.479999542   1653894.625
 -9.289999962   1654204.500
 -9.100000381   1654507.250
 -8.909999847   1654806.000
 -8.720000267   1655109.000
 -8.529999733   1655418.250
 -8.340000153   1655734.125
 -8.149999619   1656058.375
 -7.960000038   1656386.625
 -7.769999981   1656717.750
 -7.579999924   1657043.750
 -7.389999866   1657363.750
 -7.199999809   1657676.625
 -7.010000229   1657983.500
 -6.820000172   1658285.750
 -6.630000114   1658589.500
 -6.440000057   1658897.875
 -6.250000000   1659211.125
 -6.059999943   1659532.375
 -5.869999886   1659858.875
 -5.679999828   1660186.875
 -5.489999771   1660511.750
 -5.300000191   1660831.125
 -5.110000134   1661141.250
 -4.920000076   1661445.500
 -4.730000019   1661746.375
 -4.539999962   1662047.125
 -4.349999905   1662353.750
 -4.159999847   1662668.875
 -3.970000029   1662989.375
 -3.779999971   1663316.125
 -3.589999914   1663645.750
 -3.400000095   1663972.750
 -3.210000038   1664291.750
 -3.019999981   1664605.750
 -2.829999924   1664910.125
 -2.640000105   1665209.875
 -2.450000048   1665509.125
 -2.259999990   1665812.250
 -2.069999933   1666122.500
 -1.879999995   1666440.250
 -1.690000057   1666762.125
 -1.500000000   1667084.750
 -1.309999943   1667405.625
 -1.120000005   1667720.375
 -0.9300000072   1668029.875
 -0.7400000095   1668332.500
 -0.5500000119   1668632.375
 -0.3600000143   1668930.250
 -0.1700000018   1669234.250
 0.1999999955E-01   1669543.875
 0.2099999934   1669858.000
 0.4000000060   1670177.375
 0.5899999738   1670498.000
 0.7799999714   1670816.000
 0.9700000286   1671128.625
 1.159999967   1671435.250
 1.350000024   1671738.250
 1.539999962   1672040.750
 1.730000019   1672342.375
 1.919999957   1672647.500
 2.109999895   1672958.125
 2.299999952   1673271.500
 2.490000010   1673582.625
 2.680000067   1673893.875
 2.869999886   1674201.500
 3.059999943   1674504.500
 3.250000000   1674805.750
 3.440000057   1675107.375
 3.630000114   1675412.125
 3.819999933   1675717.125
 4.010000229   1676024.375
 4.199999809   1676332.500
 4.389999866   1676641.875
 4.579999924   1676949.875
 4.769999981   1677259.750
 4.960000038   1677568.375
 5.150000095   1677876.625
 5.340000153   1678183.375
 5.530000210   1678488.000
 5.719999790   1678792.375
 5.909999847   1679092.750
 6.099999905   1679392.000
 6.289999962   1679690.375
 6.480000019   1679988.125
 6.670000076   1680286.250
 6.860000134   1680585.250
 7.050000191   1680887.000
 7.239999771   1681190.750
 7.429999828   1681494.000
 7.619999886   1681793.625
 7.809999943   1682091.500
 8.000000000   1682385.875
 8.189999580   1682678.625
 8.380000114   1682972.750
 8.569999695   1683270.625
 8.760000229   1683572.375
 8.949999809   1683879.750
 9.140000343   1684190.750
 9.329999924   1684502.625
 9.520000458   1684813.500
 9.710000038   1685119.000
 9.899999619   1685419.625
 10.09000015   1685714.000
 10.27999973   1686007.375
 10.47000027   1686301.500
 10.65999985   1686597.000
 10.85000038   1686898.250
 11.03999996   1687202.625
 11.22999954   1687511.375
 11.42000008   1687817.625
 11.60999966   1688122.750
 11.80000019   1688424.875
 11.98999977   1688719.750
 12.18000031   1689012.250
 12.36999989   1689303.625
 12.56000042   1689597.125
 12.75000000   1689894.625
 12.93999958   1690197.500
 13.13000011   1690504.500
 13.31999969   1690813.750
 13.51000023   1691122.125
 13.69999981   1691426.875
 13.89000034   1691725.875
 14.07999992   1692018.000
 14.27000046   1692305.625
 14.46000004   1692592.875
 14.64999962   1692884.750
 14.84000015   1693181.125
 15.02999973   1693484.500
 15.22000027   1693794.375
 15.40999985   1694107.125
 15.60000038   1694418.250
 15.78999996   1694727.000
 15.97999954   1695031.375
 16.17000008   1695328.875
 16.36000061   1695623.000
 16.54999924   1695915.750
 16.73999977   1696209.375
 16.93000031   1696505.875
 17.12000084   1696806.500
 17.30999947   1697111.625
 17.50000000   1697416.375
 17.69000053   1697720.000
 17.87999916   1698019.250
 18.06999969   1698313.250
 18.26000023   1698603.375
 18.45000076   1698891.625
 18.63999939   1699179.250
 18.82999992   1699467.500
 19.02000046   1699759.500
 19.20999908   1700053.125
 19.39999962   1700350.250
 19.59000015   1700648.000
 19.78000069   1700946.750
 19.96999931   1701243.000
 20.15999985   1701536.750
 20.35000038   1701828.250
 20.54000092   1702118.125
 20.72999954   1702406.375
 20.92000008   1702695.375
 21.11000061   1702984.875
 21.29999924   1703275.250
 21.48999977   1703568.375
 21.68000031   1703864.125
 21.87000084   1704161.500
 22.05999947   1704458.625
 22.25000000   1704756.125
 22.44000053   1705051.250
 22.62999916   1705343.625
 22.81999969   1705631.500
 23.01000023   1705918.375
 23.20000076   1706206.625
 23.38999939   1706497.625
 23.57999992   1706791.000
 23.77000046   1707086.125
 23.95999908   1707384.375
 24.14999962   1707678.875
 24.34000015   1707970.875
 24.53000069   1708257.375
 24.71999931   1708538.625
 24.90999985   1708815.000
 25.10000038   1709091.875
 25.29000092   1709371.125
 25.47999954   1709655.000
 25.67000008   1709942.750
 25.86000061   1710234.125
 26.04999924   1710526.375
 26.23999977   1710819.375
 26.43000031   1711110.625
 26.62000084   1711400.375
 26.80999947   1711689.500
