 -30.00000000   -5794518.500
 -29.80999947   -5795694.000
 -29.62000084   -5796866.500
 -29.43000031   -5798036.000
 -29.23999977   -5799204.000
 -29.04999924   -5800374.000
 -28.86000061   -5801549.000
 -28.67000008   -5802724.500
 -28.47999954   -5803903.000
 -28.29000092   -5805081.000
 -28.10000038   -5806256.500
 -27.90999985   -5807427.000
 -27.71999931   -5808593.000
 -27.53000069   -5809756.000
 -27.34000015   -5810915.000
 -27.14999962   -5812075.500
 -26.95999908   -5813237.500
 -26.77000046   -5814404.000
 -26.57999992   -5815572.500
 -26.38999939   -5816747.000
 -26.20000076   -5817923.000
 -26.01000023   -5819097.500
 -25.81999969   -5820268.000
 -25.62999916   -5821433.000
 -25.44000053   -5822592.000
 -25.25000000   -5823747.000
 -25.05999947   -5824901.500
 -24.87000084   -5826056.000
 -24.68000031   -5827212.500
 -24.48999977   -5828373.500
 -24.29999924   -5829537.500
 -24.11000061   -5830702.500
 -23.92000008   -5831868.500
 -23.72999954   -5833030.000
 -23.54000092   -5834186.500
 -23.35000038   -5835338.000
 -23.15999985   -5836486.000
 -22.96999931   -5837630.000
 -22.78000069   -5838777.000
 -22.59000015   -5839924.000
 -22.39999962   -5841075.500
 -22.20999908   -5842232.000
 -22.02000046   -5843392.000
 -21.82999992   -5844553.000
 -21.63999939   -5845714.500
 -21.45000076   -5846873.000
 -21.26000023   -5848026.000
 -21.06999969   -5849176.000
 -20.87999916   -5850321.000
 -20.69000053   -5851466.000
 -20.50000000   -5852613.000
 -20.30999947   -5853763.500
 -20.12000084   -5854917.000
 -19.93000031   -5856076.000
 -19.73999977   -5857236.500
 -19.54999924   -5858399.500
 -19.36000061   -5859561.000
 -19.17000008   -5860719.000
 -18.97999954   -5861874.000
 -18.79000092   -5863022.500
 -18.60000038   -5864170.500
 -18.40999985   -5865317.000
 -18.21999931   -5866468.500
 -18.03000069   -5867621.000
 -17.84000015   -5868778.000
 -17.64999962   -5869938.000
 -17.45999908   -5871098.500
 -17.27000046   -5872260.000
 -17.07999992   -5873420.000
 -16.88999939   -5874574.000
 -16.70000076   -5875725.000
 -16.51000023   -5876873.000
 -16.31999969   -5878017.500
 -16.12999916   -5879164.500
 -15.93999958   -5880313.000
 -15.75000000   -5881462.500
 -15.56000042   -5882616.000
 -15.36999989   -5883772.500
 -15.18000031   -5884931.500
 -14.98999977   -5886089.000
 -14.80000019   -5887243.500
 -14.60999966   -5888396.000
 -14.42000008   -5889545.000
 -14.22999954   -5890689.000
 -14.03999996   -5891831.500
 -13.85000038   -5892974.000
 -13.65999985   -5894118.000
 -13.47000027   -5895266.500
 -13.27999973   -5896417.000
 -13.09000015   -5897571.500
 -12.89999962   -5898726.000
 -12.71000004   -5899877.500
 -12.52000046   -5901026.500
 -12.32999992   -5902170.500
 -12.14000034   -5903308.500
 -11.94999981   -5904444.000
 -11.76000023   -5905579.500
 -11.56999969   -5906715.000
 -11.38000011   -5907854.500
 -11.18999958   -5908996.000
 -11.00000000   -5910142.000
 -10.81000042   -5911289.000
 -10.61999989   -5912434.000
 -10.43000031   -5913578.500
 -10.23999977   -5914720.500
 -10.05000019   -5915856.500
 -9.859999657   -5916989.000
 -9.670000076   -5918118.500
 -9.479999542   -5919250.000
 -9.289999962   -5920384.500
 -9.100000381   -5921522.000
 -8.909999847   -5922664.500
 -8.720000267   -5923810.500
 -8.529999733   -5924955.000
 -8.340000153   -5926098.500
 -8.149999619   -5927236.000
 -7.960000038   -5928367.500
 -7.769999981   -5929493.000
 -7.579999924   -5930617.000
 -7.389999866   -5931741.500
 -7.199999809   -5932869.000
 -7.010000229   -5934001.500
 -6.820000172   -5935140.500
 -6.630000114   -5936282.500
 -6.440000057   -5937425.500
 -6.250000000   -5938566.000
 -6.059999943   -5939700.500
 -5.869999886   -5940830.500
 -5.679999828   -5941952.500
 -5.489999771   -5943072.500
 -5.300000191   -5944191.000
 -5.110000134   -5945312.500
 -4.920000076   -5946437.500
 -4.730000019   -5947569.500
 -4.539999962   -5948705.500
 -4.349999905   -5949844.500
 -4.159999847   -5950982.000
 -3.970000029   -5952117.500
 -3.779999971   -5953248.000
 -3.589999914   -5954372.000
 -3.400000095   -5955489.500
 -3.210000038   -5956605.000
 -3.019999981   -5957719.500
 -2.829999924   -5958838.500
 -2.640000105   -5959962.500
 -2.450000048   -5961090.500
 -2.259999990   -5962225.500
 -2.069999933   -5963359.500
 -1.879999995   -5964492.000
 -1.690000057   -5965621.500
 -1.500000000   -5966741.000
 -1.309999943   -5967855.500
 -1.120000005   -5968966.000
 -0.9300000072   -5970076.000
 -0.7400000095   -5971191.500
 -0.5500000119   -5972313.500
 -0.3600000143   -5973443.000
 -0.1700000018   -5974578.500
 0.1999999955E-01   -5975717.500
 0.2099999934   -5976852.000
 0.4000000060   -5977981.500
 0.5899999738   -5979101.500
 0.7799999714   -5980211.500
 0.9700000286   -5981318.500
 1.159999967   -5982425.500
 1.350000024   -5983535.500
 1.539999962   -5984652.500
 1.730000019   -5985779.500
 1.919999957   -5986912.000
 2.109999895   -5988043.000
 2.299999952   -5989173.500
 2.490000010   -5990296.500
 2.680000067   -5991412.000
 2.869999886   -5992520.500
 3.059999943   -5993625.000
 3.250000000   -5994730.000
 3.440000057   -5995838.500
 3.630000114   -5996950.500
 3.819999933   -5998066.500
 4.010000229   -5999187.500
 4.199999809   -6000309.000
 4.389999866   -6001431.000
 4.579999924   -6002547.500
 4.769999981   -6003663.000
 4.960000038   -6004772.000
 5.150000095   -6005878.500
 5.340000153   -6006981.000
 5.530000210   -6008084.000
 5.719999790   -6009187.000
 5.909999847   -6010293.500
 6.099999905   -6011404.000
 6.289999962   -6012520.000
 6.480000019   -6013640.000
 6.670000076   -6014760.500
 6.860000134   -6015881.000
 7.050000191   -6016995.500
 7.239999771   -6018103.000
 7.429999828   -6019205.000
 7.619999886   -6020302.500
 7.809999943   -6021397.500
 8.000000000   -6022493.500
 8.189999580   -6023594.500
 8.380000114   -6024702.000
 8.569999695   -6025813.000
 8.760000229   -6026927.000
 8.949999809   -6028043.000
 9.140000343   -6029154.500
 9.329999924   -6030261.000
 9.520000458   -6031363.000
 9.710000038   -6032457.500
 9.899999619   -6033549.000
 10.09000015   -6034639.500
 10.27999973   -6035732.500
 10.47000027   -6036831.000
 10.65999985   -6037933.000
 10.85000038   -6039038.000
 11.03999996   -6040142.000
 11.22999954   -6041245.000
 11.42000008   -6042342.500
 11.60999966   -6043436.000
 11.80000019   -6044524.500
 11.98999977   -6045611.000
 12.18000031   -6046696.000
 12.36999989   -6047786.000
 12.56000042   -6048879.500
 12.75000000   -6049982.000
 12.93999958   -6051090.000
 13.13000011   -6052201.500
 13.31999969   -6053312.000
 13.51000023   -6054419.500
 13.69999981   -6055521.000
 13.89000034   -6056614.500
 14.07999992   -6057704.500
 14.27000046   -6058792.000
 14.46000004   -6059880.500
 14.64999962   -6060973.500
 14.84000015   -6062073.500
 15.02999973   -6063182.000
 15.22000027   -6064293.000
 15.40999985   -6065405.500
 15.60000038   -6066513.500
 15.78999996   -6067614.500
 15.97999954   -6068706.500
 16.17000008   -6069792.000
 16.36000061   -6070870.000
 16.54999924   -6071948.000
 16.73999977   -6073026.000
 16.93000031   -6074110.500
 17.12000084   -6075201.500
 17.30999947   -6076302.000
 17.50000000   -6077402.500
 17.69000053   -6078503.000
 17.87999916   -6079599.000
 18.06999969   -6080686.500
 18.26000023   -6081767.000
 18.45000076   -6082842.000
 18.63999939   -6083915.500
 18.82999992   -6084993.000
 19.02000046   -6086077.000
 19.20999908   -6087169.000
 19.39999962   -6088267.000
 19.59000015   -6089370.000
 19.78000069   -6090472.500
 19.96999931   -6091569.500
 20.15999985   -6092660.500
 20.35000038   -6093745.000
 20.54000092   -6094822.000
 20.72999954   -6095899.000
 20.92000008   -6096978.000
 21.11000061   -6098060.500
 21.29999924   -6099149.500
 21.48999977   -6100245.500
 21.68000031   -6101342.500
 21.87000084   -6102441.000
 22.05999947   -6103535.000
 22.25000000   -6104625.500
 22.44000053   -6105708.500
 22.62999916   -6106786.000
 22.81999969   -6107859.500
 23.01000023   -6108934.000
 23.20000076   -6110012.000
 23.38999939   -6111096.000
 23.57999992   -6112185.000
 23.77000046   -6113278.000
 23.95999908   -6114371.500
 24.14999962   -6115460.000
 24.34000015   -6116543.000
 24.53000069   -6117618.500
 24.71999931   -6118685.500
 24.90999985   -6119751.000
 25.10000038   -6120816.000
 25.29000092   -6121886.500
 25.47999954   -6122966.000
 25.67000008   -6124052.500
 25.86000061   -6125144.000
 26.04999924   -6126234.000
 26.23999977   -6127322.500
 26.43000031   -6128404.000
 26.62000084   -6129482.000
 26.80999947   -6130551.500
