 -30.00000000   7906175.000
 -29.80999947   7907803.500
 -29.62000084   7909432.000
 -29.43000031   7911055.000
 -29.23999977   7912668.500
 -29.04999924   7914284.000
 -28.86000061   7915909.500
 -28.67000008   7917547.000
 -28.47999954   7919187.500
 -28.29000092   7920818.000
 -28.10000038   7922439.500
 -27.90999985   7924052.000
 -27.71999931   7925670.500
 -27.53000069   7927301.000
 -27.34000015   7928940.500
 -27.14999962   7930577.500
 -26.95999908   7932204.000
 -26.77000046   7933822.500
 -26.57999992   7935442.000
 -26.38999939   7937071.000
 -26.20000076   7938704.500
 -26.01000023   7940330.000
 -25.81999969   7941937.500
 -25.62999916   7943531.000
 -25.44000053   7945124.500
 -25.25000000   7946726.000
 -25.05999947   7948338.000
 -24.87000084   7949948.500
 -24.68000031   7951546.000
 -24.48999977   7953136.000
 -24.29999924   7954726.000
 -24.11000061   7956331.500
 -23.92000008   7957951.500
 -23.72999954   7959578.000
 -23.54000092   7961197.500
 -23.35000038   7962810.500
 -23.15999985   7964426.000
 -22.96999931   7966059.500
 -22.78000069   7967710.000
 -22.59000015   7969365.000
 -22.39999962   7971013.000
 -22.20999908   7972647.500
 -22.02000046   7974278.000
 -21.82999992   7975917.500
 -21.63999939   7977565.500
 -21.45000076   7979214.000
 -21.26000023   7980847.500
 -21.06999969   7982463.000
 -20.87999916   7984072.000
 -20.69000053   7985696.000
 -20.50000000   7987337.000
 -20.30999947   7988987.000
 -20.12000084   7990630.500
 -19.93000031   7992255.000
 -19.73999977   7993867.500
 -19.54999924   7995482.000
 -19.36000061   7997107.000
 -19.17000008   7998736.500
 -18.97999954   8000360.000
 -18.79000092   8001971.000
 -18.60000038   8003578.000
 -18.40999985   8005190.500
 -18.21999931   8006825.000
 -18.03000069   8008471.500
 -17.84000015   8010120.000
 -17.64999962   8011754.000
 -17.45999908   8013375.500
 -17.27000046   8014993.000
 -17.07999992   8016625.000
 -16.88999939   8018271.500
 -16.70000076   8019922.000
 -16.51000023   8021565.500
 -16.31999969   8023194.000
 -16.12999916   8024821.500
 -15.93999958   8026459.000
 -15.75000000   8028109.500
 -15.56000042   8029763.500
 -15.36999989   8031405.500
 -15.18000031   8033030.500
 -14.98999977   8034652.000
 -14.80000019   8036283.000
 -14.60999966   8037928.500
 -14.42000008   8039580.000
 -14.22999954   8041218.000
 -14.03999996   8042836.500
 -13.85000038   8044441.000
 -13.65999985   8046051.500
 -13.47000027   8047678.000
 -13.27999973   8049315.500
 -13.09000015   8050950.000
 -12.89999962   8052568.500
 -12.71000004   8054174.000
 -12.52000046   8055779.500
 -12.32999992   8057392.000
 -12.14000034   8059006.500
 -11.94999981   8060615.000
 -11.76000023   8062208.000
 -11.56999969   8063795.000
 -11.38000011   8065393.000
 -11.18999958   8067008.500
 -11.00000000   8068640.500
 -10.81000042   8070275.000
 -10.61999989   8071898.000
 -10.43000031   8073508.000
 -10.23999977   8075116.000
 -10.05000019   8076734.500
 -9.859999657   8078364.000
 -9.670000076   8079998.500
 -9.479999542   8081623.000
 -9.289999962   8083235.500
 -9.100000381   8084844.000
 -8.909999847   8086461.000
 -8.720000267   8088089.500
 -8.529999733   8089719.500
 -8.340000153   8091337.500
 -8.149999619   8092943.500
 -7.960000038   8094544.500
 -7.769999981   8096155.000
 -7.579999924   8097783.500
 -7.389999866   8099421.500
 -7.199999809   8101055.500
 -7.010000229   8102677.500
 -6.820000172   8104296.000
 -6.630000114   8105921.500
 -6.440000057   8107555.000
 -6.250000000   8109192.500
 -6.059999943   8110821.500
 -5.869999886   8112436.000
 -5.679999828   8114042.500
 -5.489999771   8115651.000
 -5.300000191   8117269.500
 -5.110000134   8118900.000
 -4.920000076   8120527.500
 -4.730000019   8122147.000
 -4.539999962   8123759.500
 -4.349999905   8125377.500
 -4.159999847   8127008.500
 -3.970000029   8128652.500
 -3.779999971   8130294.500
 -3.589999914   8131927.500
 -3.400000095   8133550.000
 -3.210000038   8135173.500
 -3.019999981   8136804.000
 -2.829999924   8138443.000
 -2.640000105   8140084.500
 -2.450000048   8141719.500
 -2.259999990   8143344.000
 -2.069999933   8144966.500
 -1.879999995   8146588.000
 -1.690000057   8148214.000
 -1.500000000   8149844.500
 -1.309999943   8151469.000
 -1.120000005   8153088.000
 -0.9300000072   8154704.500
 -0.7400000095   8156332.000
 -0.5500000119   8157970.000
 -0.3600000143   8159610.500
 -0.1700000018   8161248.000
 0.1999999955E-01   8162874.000
 0.2099999934   8164492.500
 0.4000000060   8166111.000
 0.5899999738   8167741.000
 0.7799999714   8169386.500
 0.9700000286   8171037.000
 1.159999967   8172683.500
 1.350000024   8174324.000
 1.539999962   8175961.000
 1.730000019   8177603.000
 1.919999957   8179248.000
 2.109999895   8180892.000
 2.299999952   8182529.500
 2.490000010   8184156.500
 2.680000067   8185781.500
 2.869999886   8187414.000
 3.059999943   8189057.500
 3.250000000   8190706.000
 3.440000057   8192352.500
 3.630000114   8193993.000
 3.819999933   8195627.000
 4.010000229   8197263.500
 4.199999809   8198908.000
 4.389999866   8200557.500
 4.579999924   8202204.000
 4.769999981   8203839.000
 4.960000038   8205462.000
 5.150000095   8207080.500
 5.340000153   8208705.000
 5.530000210   8210340.500
 5.719999790   8211977.000
 5.909999847   8213606.000
 6.099999905   8215224.500
 6.289999962   8216839.000
 6.480000019   8218460.500
 6.670000076   8220095.000
 6.860000134   8221732.500
 7.050000191   8223364.500
 7.239999771   8224983.000
 7.429999828   8226595.500
 7.619999886   8228213.000
 7.809999943   8229845.500
 8.000000000   8231486.500
 8.189999580   8233125.500
 8.380000114   8234751.500
 8.569999695   8236371.000
 8.760000229   8237995.500
 8.949999809   8239632.500
 9.140000343   8241281.000
 9.329999924   8242927.500
 9.520000458   8244558.000
 9.710000038   8246179.500
 9.899999619   8247806.500
 10.09000015   8249447.500
 10.27999973   8251107.000
 10.47000027   8252762.500
 10.65999985   8254401.000
 10.85000038   8256024.000
 11.03999996   8257650.000
 11.22999954   8259294.000
 11.42000008   8260953.500
 11.60999966   8262614.500
 11.80000019   8264256.500
 11.98999977   8265881.000
 12.18000031   8267502.000
 12.36999989   8269138.000
 12.56000042   8270792.000
 12.75000000   8272446.000
 12.93999958   8274083.500
 13.13000011   8275700.000
 13.31999969   8277313.500
 13.51000023   8278943.000
 13.69999981   8280594.500
 13.89000034   8282249.000
 14.07999992   8283880.000
 14.27000046   8285493.500
 14.46000004   8287099.500
 14.64999962   8288725.000
 14.84000015   8290377.000
 15.02999973   8292040.000
 15.22000027   8293689.000
 15.40999985   8295312.500
 15.60000038   8296924.500
 15.78999996   8298547.500
 15.97999954   8300190.000
 16.17000008   8301843.500
 16.36000061   8303484.000
 16.54999924   8305100.000
 16.73999977   8306707.000
 16.93000031   8308326.500
 17.12000084   8309973.500
 17.30999947   8311633.000
 17.50000000   8313281.500
 17.69000053   8314905.000
 17.87999916   8316513.000
 18.06999969   8318130.500
 18.26000023   8319772.500
 18.45000076   8321429.500
 18.63999939   8323081.500
 18.82999992   8324708.500
 19.02000046   8326321.500
 19.20999908   8327941.000
 19.39999962   8329582.000
 19.59000015   8331236.000
 19.78000069   8332884.500
 19.96999931   8334502.500
 20.15999985   8336103.500
 20.35000038   8337711.000
 20.54000092   8339342.000
 20.72999954   8340995.500
 20.92000008   8342647.500
 21.11000061   8344279.000
 21.29999924   8345891.000
 21.48999977   8347507.500
 21.68000031   8349143.500
 21.87000084   8350804.000
 22.05999947   8352462.000
 22.25000000   8354098.000
 22.44000053   8355708.000
 22.62999916   8357315.500
 22.81999969   8358940.000
 23.01000023   8360588.000
 23.20000076   8362244.500
 23.38999939   8363887.000
 23.57999992   8365506.500
 23.77000046   8367122.500
 23.95999908   8368754.500
 24.14999962   8370412.000
 24.34000015   8372078.000
 24.53000069   8373727.000
 24.71999931   8375347.500
 24.90999985   8376955.500
 25.10000038   8378574.500
 25.29000092   8380216.500
 25.47999954   8381872.500
 25.67000008   8383523.500
 25.86000061   8385154.000
 26.04999924   8386770.500
 26.23999977   8388390.500
 26.43000031   8390032.000
 26.62000084   8391687.000
 26.80999947   8393335.000
