 -30.00000000   -7695612.500
 -29.80999947   -7697171.000
 -29.62000084   -7698717.000
 -29.43000031   -7700259.000
 -29.23999977   -7701798.500
 -29.04999924   -7703345.500
 -28.86000061   -7704901.000
 -28.67000008   -7706464.500
 -28.47999954   -7708034.500
 -28.29000092   -7709602.000
 -28.10000038   -7711165.000
 -27.90999985   -7712716.000
 -27.71999931   -7714255.500
 -27.53000069   -7715783.500
 -27.34000015   -7717307.000
 -27.14999962   -7718826.000
 -26.95999908   -7720354.000
 -26.77000046   -7721891.500
 -26.57999992   -7723442.000
 -26.38999939   -7725005.000
 -26.20000076   -7726572.000
 -26.01000023   -7728132.500
 -25.81999969   -7729682.000
 -25.62999916   -7731221.500
 -25.44000053   -7732746.000
 -25.25000000   -7734265.500
 -25.05999947   -7735785.500
 -24.87000084   -7737312.500
 -24.68000031   -7738852.000
 -24.48999977   -7740400.000
 -24.29999924   -7741956.000
 -24.11000061   -7743515.500
 -23.92000008   -7745070.000
 -23.72999954   -7746617.000
 -23.54000092   -7748153.500
 -23.35000038   -7749680.000
 -23.15999985   -7751198.000
 -22.96999931   -7752710.500
 -22.78000069   -7754221.500
 -22.59000015   -7755734.500
 -22.39999962   -7757258.000
 -22.20999908   -7758795.500
 -22.02000046   -7760345.500
 -21.82999992   -7761907.500
 -21.63999939   -7763475.500
 -21.45000076   -7765038.500
 -21.26000023   -7766590.000
 -21.06999969   -7768124.000
 -20.87999916   -7769640.500
 -20.69000053   -7771147.500
 -20.50000000   -7772653.000
 -20.30999947   -7774169.000
 -20.12000084   -7775700.000
 -19.93000031   -7777251.500
 -19.73999977   -7778817.000
 -19.54999924   -7780388.000
 -19.36000061   -7781955.000
 -19.17000008   -7783509.000
 -18.97999954   -7785045.500
 -18.79000092   -7786561.000
 -18.60000038   -7788066.000
 -18.40999985   -7789564.000
 -18.21999931   -7791069.500
 -18.03000069   -7792587.000
 -17.84000015   -7794122.500
 -17.64999962   -7795677.500
 -17.45999908   -7797244.000
 -17.27000046   -7798814.500
 -17.07999992   -7800378.500
 -16.88999939   -7801925.000
 -16.70000076   -7803449.000
 -16.51000023   -7804954.500
 -16.31999969   -7806448.500
 -16.12999916   -7807942.000
 -15.93999958   -7809454.500
 -15.75000000   -7810988.500
 -15.56000042   -7812551.500
 -15.36999989   -7814134.000
 -15.18000031   -7815724.000
 -14.98999977   -7817306.500
 -14.80000019   -7818869.000
 -14.60999966   -7820404.500
 -14.42000008   -7821917.500
 -14.22999954   -7823414.500
 -14.03999996   -7824913.000
 -13.85000038   -7826422.500
 -13.65999985   -7827952.500
 -13.47000027   -7829503.000
 -13.27999973   -7831070.000
 -13.09000015   -7832640.500
 -12.89999962   -7834206.500
 -12.71000004   -7835757.500
 -12.52000046   -7837286.500
 -12.32999992   -7838801.500
 -12.14000034   -7840301.500
 -11.94999981   -7841800.000
 -11.76000023   -7843302.000
 -11.56999969   -7844816.500
 -11.38000011   -7846348.500
 -11.18999958   -7847895.000
 -11.00000000   -7849454.500
 -10.81000042   -7851018.500
 -10.61999989   -7852576.000
 -10.43000031   -7854118.500
 -10.23999977   -7855640.500
 -10.05000019   -7857144.500
 -9.859999657   -7858634.000
 -9.670000076   -7860119.500
 -9.479999542   -7861610.500
 -9.289999962   -7863114.000
 -9.100000381   -7864632.000
 -8.909999847   -7866165.000
 -8.720000267   -7867703.000
 -8.529999733   -7869237.000
 -8.340000153   -7870759.000
 -8.149999619   -7872264.500
 -7.960000038   -7873756.500
 -7.769999981   -7875237.500
 -7.579999924   -7876721.000
 -7.389999866   -7878210.500
 -7.199999809   -7879715.500
 -7.010000229   -7881230.500
 -6.820000172   -7882759.500
 -6.630000114   -7884296.000
 -6.440000057   -7885834.500
 -6.250000000   -7887369.000
 -6.059999943   -7888895.500
 -5.869999886   -7890409.000
 -5.679999828   -7891907.000
 -5.489999771   -7893396.000
 -5.300000191   -7894880.000
 -5.110000134   -7896363.500
 -4.920000076   -7897854.500
 -4.730000019   -7899356.000
 -4.539999962   -7900869.500
 -4.349999905   -7902393.000
 -4.159999847   -7903918.500
 -3.970000029   -7905439.000
 -3.779999971   -7906948.500
 -3.589999914   -7908442.000
 -3.400000095   -7909924.000
 -3.210000038   -7911397.500
 -3.019999981   -7912873.000
 -2.829999924   -7914357.000
 -2.640000105   -7915852.500
 -2.450000048   -7917361.000
 -2.259999990   -7918880.500
 -2.069999933   -7920406.500
 -1.879999995   -7921931.500
 -1.690000057   -7923448.000
 -1.500000000   -7924955.500
 -1.309999943   -7926448.000
 -1.120000005   -7927930.500
 -0.9300000072   -7929410.000
 -0.7400000095   -7930889.500
 -0.5500000119   -7932377.500
 -0.3600000143   -7933879.000
 -0.1700000018   -7935395.500
 0.1999999955E-01   -7936923.500
 0.2099999934   -7938456.000
 0.4000000060   -7939983.500
 0.5899999738   -7941498.000
 0.7799999714   -7942991.000
 0.9700000286   -7944463.000
 1.159999967   -7945919.000
 1.350000024   -7947372.500
 1.539999962   -7948834.500
 1.730000019   -7950315.500
 1.919999957   -7951818.500
 2.109999895   -7953339.000
 2.299999952   -7954868.500
 2.490000010   -7956396.000
 2.680000067   -7957911.000
 2.869999886   -7959412.000
 3.059999943   -7960894.500
 3.250000000   -7962371.500
 3.440000057   -7963847.000
 3.630000114   -7965332.000
 3.819999933   -7966831.000
 4.010000229   -7968342.500
 4.199999809   -7969861.500
 4.389999866   -7971381.500
 4.579999924   -7972897.000
 4.769999981   -7974402.500
 4.960000038   -7975895.500
 5.150000095   -7977371.500
 5.340000153   -7978833.500
 5.530000210   -7980285.500
 5.719999790   -7981735.500
 5.909999847   -7983190.500
 6.099999905   -7984658.500
 6.289999962   -7986145.500
 6.480000019   -7987649.500
 6.670000076   -7989161.500
 6.860000134   -7990673.500
 7.050000191   -7992174.500
 7.239999771   -7993655.500
 7.429999828   -7995116.500
 7.619999886   -7996563.500
 7.809999943   -7998008.500
 8.000000000   -7999466.000
 8.189999580   -8000945.000
 8.380000114   -8002446.500
 8.569999695   -8003964.500
 8.760000229   -8005489.500
 8.949999809   -8007007.000
 9.140000343   -8008503.500
 9.329999924   -8009977.500
 9.520000458   -8011431.000
 9.710000038   -8012872.000
 9.899999619   -8014310.500
 10.09000015   -8015755.500
 10.27999973   -8017214.500
 10.47000027   -8018691.000
 10.65999985   -8020182.000
 10.85000038   -8021679.500
 11.03999996   -8023175.500
 11.22999954   -8024666.000
 11.42000008   -8026141.500
 11.60999966   -8027602.000
 11.80000019   -8029049.000
 11.98999977   -8030487.000
 12.18000031   -8031928.500
 12.36999989   -8033377.000
 12.56000042   -8034841.500
 12.75000000   -8036325.500
 12.93999958   -8037824.500
 13.13000011   -8039332.000
 13.31999969   -8040839.500
 13.51000023   -8042333.500
 13.69999981   -8043813.000
 13.89000034   -8045273.500
 14.07999992   -8046725.000
 14.27000046   -8048173.500
 14.46000004   -8049627.000
 14.64999962   -8051093.500
 14.84000015   -8052575.500
 15.02999973   -8054070.000
 15.22000027   -8055569.000
 15.40999985   -8057067.000
 15.60000038   -8058553.000
 15.78999996   -8060028.000
 15.97999954   -8061489.500
 16.17000008   -8062937.000
 16.36000061   -8064379.000
 16.54999924   -8065817.500
 16.73999977   -8067262.000
 16.93000031   -8068714.500
 17.12000084   -8070181.500
 17.30999947   -8071659.000
 17.50000000   -8073145.000
 17.69000053   -8074631.500
 17.87999916   -8076106.500
 18.06999969   -8077567.500
 18.26000023   -8079011.500
 18.45000076   -8080438.500
 18.63999939   -8081859.500
 18.82999992   -8083282.500
 19.02000046   -8084716.500
 19.20999908   -8086170.000
 19.39999962   -8087640.500
 19.59000015   -8089124.500
 19.78000069   -8090609.500
 19.96999931   -8092083.500
 20.15999985   -8093541.500
 20.35000038   -8094979.500
 20.54000092   -8096406.000
 20.72999954   -8097827.500
 20.92000008   -8099251.000
 21.11000061   -8100685.500
 21.29999924   -8102135.500
 21.48999977   -8103597.500
 21.68000031   -8105068.500
 21.87000084   -8106542.500
 22.05999947   -8108013.000
 22.25000000   -8109475.000
 22.44000053   -8110926.500
 22.62999916   -8112369.500
 22.81999969   -8113807.000
 23.01000023   -8115239.500
 23.20000076   -8116674.000
 23.38999939   -8118110.000
 23.57999992   -8119556.500
 23.77000046   -8121013.000
 23.95999908   -8122483.500
 24.14999962   -8123960.000
 24.34000015   -8125437.000
 24.53000069   -8126906.000
 24.71999931   -8128361.000
 24.90999985   -8129800.000
 25.10000038   -8131227.500
 25.29000092   -8132650.000
 25.47999954   -8134072.500
 25.67000008   -8135504.000
 25.86000061   -8136948.500
 26.04999924   -8138403.500
 26.23999977   -8139868.500
 26.43000031   -8141334.500
 26.62000084   -8142789.500
 26.80999947   -8144232.500
