 -30.00000000   297712.6250
 -29.80999947   297830.3438
 -29.62000084   297990.8750
 -29.43000031   298174.1875
 -29.23999977   298350.0312
 -29.04999924   298498.5625
 -28.86000061   298609.0000
 -28.67000008   298684.5000
 -28.47999954   298739.6875
 -28.29000092   298796.0625
 -28.10000038   298875.1875
 -27.90999985   298988.8438
 -27.71999931   299145.4375
 -27.53000069   299333.2812
 -27.34000015   299536.4688
 -27.14999962   299733.5938
 -26.95999908   299902.5625
 -26.77000046   300028.7500
 -26.57999992   300111.7812
 -26.38999939   300156.8750
 -26.20000076   300185.9062
 -26.01000023   300221.9062
 -25.81999969   300284.1250
 -25.62999916   300388.3438
 -25.44000053   300534.5312
 -25.25000000   300714.3750
 -25.05999947   300908.5000
 -24.87000084   301093.4688
 -24.68000031   301247.0625
 -24.48999977   301356.2812
 -24.29999924   301421.9375
 -24.11000061   301456.2500
 -23.92000008   301485.1562
 -23.72999954   301528.7500
 -23.54000092   301608.5312
 -23.35000038   301732.0625
 -23.15999985   301889.2188
 -22.96999931   302064.6250
 -22.78000069   302233.1250
 -22.59000015   302372.9375
 -22.39999962   302471.3438
 -22.20999908   302526.7812
 -22.02000046   302547.3125
 -21.82999992   302553.6250
 -21.63999939   302568.1562
 -21.45000076   302608.1875
 -21.26000023   302685.7812
 -21.06999969   302798.0000
 -20.87999916   302936.0312
 -20.69000053   303083.6875
 -20.50000000   303223.7500
 -20.30999947   303344.4375
 -20.12000084   303438.6875
 -19.93000031   303502.5625
 -19.73999977   303547.1250
 -19.54999924   303584.0938
 -19.36000061   303626.2500
 -19.17000008   303689.8438
 -18.97999954   303779.0938
 -18.79000092   303890.9375
 -18.60000038   304019.2188
 -18.40999985   304146.8125
 -18.21999931   304263.4375
 -18.03000069   304356.7812
 -17.84000015   304421.1562
 -17.64999962   304463.3750
 -17.45999908   304491.6250
 -17.27000046   304523.9375
 -17.07999992   304574.2500
 -16.88999939   304656.4688
 -16.70000076   304770.7188
 -16.51000023   304908.9375
 -16.31999969   305055.4688
 -16.12999916   305187.0938
 -15.93999958   305292.1875
 -15.75000000   305361.6875
 -15.56000042   305398.2188
 -15.36999989   305412.4688
 -15.18000031   305421.3438
 -14.98999977   305445.0312
 -14.80000019   305496.3750
 -14.60999966   305579.4375
 -14.42000008   305691.7188
 -14.22999954   305818.6875
 -14.03999996   305939.9062
 -13.85000038   306042.0312
 -13.65999985   306117.1875
 -13.47000027   306163.5938
 -13.27999973   306192.2812
 -13.09000015   306214.8125
 -12.89999962   306248.0625
 -12.71000004   306298.5000
 -12.52000046   306374.7500
 -12.32999992   306476.4375
 -12.14000034   306594.0938
 -11.94999981   306716.2812
 -11.76000023   306827.0312
 -11.56999969   306917.4062
 -11.38000011   306981.0625
 -11.18999958   307020.1250
 -11.00000000   307043.3125
 -10.81000042   307060.5000
 -10.61999989   307088.4375
 -10.43000031   307135.2812
 -10.23999977   307209.6875
 -10.05000019   307310.4375
 -9.859999657   307431.6562
 -9.670000076   307560.6250
 -9.479999542   307677.9688
 -9.289999962   307771.0625
 -9.100000381   307829.5625
 -8.909999847   307861.0000
 -8.720000267   307873.8750
 -8.529999733   307886.5312
 -8.340000153   307916.5000
 -8.149999619   307978.3750
 -7.960000038   308076.0625
 -7.769999981   308203.0625
 -7.579999924   308345.9062
 -7.389999866   308479.4062
 -7.199999809   308585.7500
 -7.010000229   308655.2188
 -6.820000172   308688.0938
 -6.630000114   308697.7500
 -6.440000057   308702.1562
 -6.250000000   308725.8750
 -6.059999943   308781.5938
 -5.869999886   308874.4688
 -5.679999828   308998.1250
 -5.489999771   309135.5938
 -5.300000191   309272.4375
 -5.110000134   309389.1875
 -4.920000076   309476.8438
 -4.730000019   309534.0000
 -4.539999962   309567.8438
 -4.349999905   309591.6250
 -4.159999847   309622.0938
 -3.970000029   309671.5312
 -3.779999971   309746.2812
 -3.589999914   309847.1875
 -3.400000095   309967.6250
 -3.210000038   310094.3438
 -3.019999981   310216.8125
 -2.829999924   310319.6250
 -2.640000105   310395.9375
 -2.450000048   310441.5938
 -2.259999990   310463.9375
 -2.069999933   310473.3125
 -1.879999995   310488.8438
 -1.690000057   310527.4062
 -1.500000000   310600.1562
 -1.309999943   310708.0312
 -1.120000005   310841.6562
 -0.9300000072   310987.7188
 -0.7400000095   311122.2188
 -0.5500000119   311229.8438
 -0.3600000143   311298.7188
 -0.1700000018   311333.1562
 0.1999999955E-01   311340.4375
 0.2099999934   311344.1250
 0.4000000060   311364.5938
 0.5899999738   311420.8750
 0.7799999714   311516.0938
 0.9700000286   311645.5625
 1.159999967   311789.9062
 1.350000024   311931.4375
 1.539999962   312048.8438
 1.730000019   312129.2812
 1.919999957   312176.8125
 2.109999895   312198.8438
 2.299999952   312213.0938
 2.490000010   312238.5625
 2.680000067   312291.8125
 2.869999886   312377.8438
 3.059999943   312494.2812
 3.250000000   312627.8125
 3.440000057   312763.3750
 3.630000114   312882.4062
 3.819999933   312973.5625
 4.010000229   313034.1562
 4.199999809   313068.5000
 4.389999866   313086.4688
 4.579999924   313101.6562
 4.769999981   313128.8125
 4.960000038   313182.2812
 5.150000095   313266.9062
 5.340000153   313379.6875
 5.530000210   313511.7500
 5.719999790   313646.3438
 5.909999847   313764.9688
 6.099999905   313854.1875
 6.289999962   313912.0938
 6.480000019   313943.1875
 6.670000076   313957.9062
 6.860000134   313975.8750
 7.050000191   314016.6875
 7.239999771   314089.0312
 7.429999828   314198.5938
 7.619999886   314337.3750
 7.809999943   314484.2500
 8.000000000   314620.1250
 8.189999580   314725.5000
 8.380000114   314793.6250
 8.569999695   314824.8750
 8.760000229   314832.4688
 8.949999809   314838.4688
 9.140000343   314862.0938
 9.329999924   314918.3438
 9.520000458   315010.4688
 9.710000038   315136.9062
 9.899999619   315277.5312
 10.09000015   315417.9688
 10.27999973   315539.7812
 10.47000027   315634.0312
 10.65999985   315693.9688
 10.85000038   315733.0000
 11.03999996   315760.9375
 11.22999954   315802.5938
 11.42000008   315868.8750
 11.60999966   315966.1250
 11.80000019   316093.9375
 11.98999977   316239.2188
 12.18000031   316389.0938
 12.36999989   316522.8125
 12.56000042   316628.4062
 12.75000000   316697.4375
 12.93999958   316732.6562
 13.13000011   316745.5312
 13.31999969   316753.2188
 13.51000023   316769.8750
 13.69999981   316806.1875
 13.89000034   316865.7188
 14.07999992   316948.0938
 14.27000046   317041.1875
 14.46000004   317135.5938
 14.64999962   317219.7500
 14.84000015   317284.8125
 15.02999973   317325.2812
 15.22000027   317343.5938
 15.40999985   317351.4375
 15.60000038   317364.6250
 15.78999996   317396.7188
 15.97999954   317458.0000
 16.17000008   317554.9062
 16.36000061   317680.4375
 16.54999924   317821.5938
 16.73999977   317964.6250
 16.93000031   318093.0000
 17.12000084   318195.3750
 17.30999947   318270.2812
 17.50000000   318321.0312
 17.69000053   318360.1562
 17.87999916   318410.4062
 18.06999969   318483.4688
 18.26000023   318586.1875
 18.45000076   318719.6562
 18.63999939   318869.8125
 18.82999992   319024.7812
 19.02000046   319162.3438
 19.20999908   319274.9375
 19.39999962   319353.7500
 19.59000015   319406.0000
 19.78000069   319434.4688
 19.96999931   319463.1562
 20.15999985   319509.4375
 20.35000038   319583.8750
 20.54000092   319693.3125
 20.72999954   319831.2812
 20.92000008   319983.9062
 21.11000061   320124.1562
 21.29999924   320245.9688
 21.48999977   320332.8750
 21.68000031   320388.1250
 21.87000084   320417.5000
 22.05999947   320438.4688
 22.25000000   320469.4062
 22.44000053   320526.8750
 22.62999916   320616.8125
 22.81999969   320734.1562
 23.01000023   320867.9375
 23.20000076   320996.4062
 23.38999939   321103.6562
 23.57999992   321179.0000
 23.77000046   321221.4688
 23.95999908   321240.0938
 24.14999962   321248.1562
 24.34000015   321260.4688
 24.53000069   321294.0625
 24.71999931   321358.3125
 24.90999985   321450.9375
 25.10000038   321564.7812
 25.29000092   321684.8125
 25.47999954   321796.3125
 25.67000008   321888.4688
 25.86000061   321955.4375
 26.04999924   322000.0000
 26.23999977   322031.7188
 26.43000031   322062.0312
 26.62000084   322104.0312
 26.80999947   322169.4688
