 -30.00000000   825324.3750
 -29.80999947   825478.8125
 -29.62000084   825625.6250
 -29.43000031   825768.9375
 -29.23999977   825915.2500
 -29.04999924   826067.2500
 -28.86000061   826221.5000
 -28.67000008   826374.1875
 -28.47999954   826523.4375
 -28.29000092   826670.5625
 -28.10000038   826815.6875
 -27.90999985   826963.2500
 -27.71999931   827115.8750
 -27.53000069   827274.9375
 -27.34000015   827433.2500
 -27.14999962   827593.6875
 -26.95999908   827750.2500
 -26.77000046   827904.1250
 -26.57999992   828063.0000
 -26.38999939   828230.4375
 -26.20000076   828409.8750
 -26.01000023   828600.1250
 -25.81999969   828799.3125
 -25.62999916   828997.0625
 -25.44000053   829189.7500
 -25.25000000   829374.2500
 -25.05999947   829550.6250
 -24.87000084   829726.0625
 -24.68000031   829900.0000
 -24.48999977   830077.8750
 -24.29999924   830255.6250
 -24.11000061   830432.5625
 -23.92000008   830606.7500
 -23.72999954   830775.5625
 -23.54000092   830937.6250
 -23.35000038   831098.8125
 -23.15999985   831261.8125
 -22.96999931   831428.4375
 -22.78000069   831597.8125
 -22.59000015   831769.1875
 -22.39999962   831935.8750
 -22.20999908   832096.3125
 -22.02000046   832251.1250
 -21.82999992   832404.0625
 -21.63999939   832558.0625
 -21.45000076   832716.4375
 -21.26000023   832880.6875
 -21.06999969   833046.5000
 -20.87999916   833214.2500
 -20.69000053   833386.3750
 -20.50000000   833559.8125
 -20.30999947   833737.3750
 -20.12000084   833921.3125
 -19.93000031   834111.1250
 -19.73999977   834305.0000
 -19.54999924   834497.1875
 -19.36000061   834685.3125
 -19.17000008   834867.0000
 -18.97999954   835040.9375
 -18.79000092   835213.6250
 -18.60000038   835384.0000
 -18.40999985   835551.5000
 -18.21999931   835716.6875
 -18.03000069   835876.7500
 -17.84000015   836026.5000
 -17.64999962   836164.5625
 -17.45999908   836294.4375
 -17.27000046   836418.5000
 -17.07999992   836542.4375
 -16.88999939   836669.1250
 -16.70000076   836804.2500
 -16.51000023   836945.1250
 -16.31999969   837092.9375
 -16.12999916   837244.4375
 -15.93999958   837397.0000
 -15.75000000   837547.9375
 -15.56000042   837696.4375
 -15.36999989   837848.8125
 -15.18000031   838004.6250
 -14.98999977   838169.6875
 -14.80000019   838340.9375
 -14.60999966   838520.1875
 -14.42000008   838703.8125
 -14.22999954   838888.8125
 -14.03999996   839076.8125
 -13.85000038   839268.3125
 -13.65999985   839460.2500
 -13.47000027   839663.6875
 -13.27999973   839871.4375
 -13.09000015   840084.7500
 -12.89999962   840304.4375
 -12.71000004   840525.2500
 -12.52000046   840747.3750
 -12.32999992   840966.8750
 -12.14000034   841182.1875
 -11.94999981   841389.6875
 -11.76000023   841593.8125
 -11.56999969   841791.7500
 -11.38000011   841988.1875
 -11.18999958   842182.6250
 -11.00000000   842380.6250
 -10.81000042   842580.0000
 -10.61999989   842786.5625
 -10.43000031   842998.1875
 -10.23999977   843216.2500
 -10.05000019   843438.0625
 -9.859999657   843660.1875
 -9.670000076   843879.3125
 -9.479999542   844097.0000
 -9.289999962   844309.9375
 -9.100000381   844520.3750
 -8.909999847   844725.8125
 -8.720000267   844927.1875
 -8.529999733   845117.9375
 -8.340000153   845293.7500
 -8.149999619   845457.6875
 -7.960000038   845605.8750
 -7.769999981   845746.1250
 -7.579999924   845881.1250
 -7.389999866   846017.6250
 -7.199999809   846156.3125
 -7.010000229   846297.0000
 -6.820000172   846435.8750
 -6.630000114   846570.3125
 -6.440000057   846697.8125
 -6.250000000   846820.8750
 -6.059999943   846937.8125
 -5.869999886   847055.7500
 -5.679999828   847172.5000
 -5.489999771   847291.3750
 -5.300000191   847409.6250
 -5.110000134   847527.3750
 -4.920000076   847638.4375
 -4.730000019   847745.6250
 -4.539999962   847851.6875
 -4.349999905   847954.3125
 -4.159999847   848060.6250
 -3.970000029   848169.6875
 -3.779999971   848287.2500
 -3.589999914   848413.1875
 -3.400000095   848549.6250
 -3.210000038   848700.8750
 -3.019999981   848863.8750
 -2.829999924   849036.8750
 -2.640000105   849219.8125
 -2.450000048   849406.5000
 -2.259999990   849596.7500
 -2.069999933   849790.6250
 -1.879999995   849986.9375
 -1.690000057   850186.8750
 -1.500000000   850391.1875
 -1.309999943   850595.3125
 -1.120000005   850791.8125
 -0.9300000072   850980.5625
 -0.7400000095   851164.1250
 -0.5500000119   851342.8125
 -0.3600000143   851526.2500
 -0.1700000018   851718.1875
 0.1999999955E-01   851924.6875
 0.2099999934   852139.8750
 0.4000000060   852361.3125
 0.5899999738   852580.1875
 0.7799999714   852794.8750
 0.9700000286   853002.1875
 1.159999967   853208.3125
 1.350000024   853413.0000
 1.539999962   853621.0625
 1.730000019   853829.0625
 1.919999957   854036.4375
 2.109999895   854237.0000
 2.299999952   854426.3125
 2.490000010   854605.3750
 2.680000067   854777.1875
 2.869999886   854948.0625
 3.059999943   855121.0625
 3.250000000   855298.6875
 3.440000057   855478.0000
 3.630000114   855654.8750
 3.819999933   855825.7500
 4.010000229   855992.0625
 4.199999809   856154.6875
 4.389999866   856317.1250
 4.579999924   856485.1875
 4.769999981   856657.0000
 4.960000038   856829.8750
 5.150000095   856996.6875
 5.340000153   857156.6875
 5.530000210   857307.3125
 5.719999790   857453.6875
 5.909999847   857601.5000
 6.099999905   857754.5625
 6.289999962   857913.7500
 6.480000019   858077.1250
 6.670000076   858241.6875
 6.860000134   858404.5625
 7.050000191   858564.3750
 7.239999771   858728.6875
 7.429999828   858897.9375
 7.619999886   859077.3125
 7.809999943   859264.6250
 8.000000000   859450.8750
 8.189999580   859628.3750
 8.380000114   859793.7500
 8.569999695   859950.6250
 8.760000229   860099.8750
 8.949999809   860251.6250
 9.140000343   860413.8750
 9.329999924   860584.1250
 9.520000458   860760.1250
 9.710000038   860935.0000
 9.899999619   861103.3750
 10.09000015   861266.2500
 10.27999973   861427.8125
 10.47000027   861597.6250
 10.65999985   861778.3125
 10.85000038   861967.1250
 11.03999996   862159.7500
 11.22999954   862348.8750
 11.42000008   862528.5000
 11.60999966   862696.8125
 11.80000019   862859.8750
 11.98999977   863024.6250
 12.18000031   863197.8750
 12.36999989   863376.8125
 12.56000042   863561.2500
 12.75000000   863741.5625
 12.93999958   863913.6875
 13.13000011   864078.9375
 13.31999969   864245.0000
 13.51000023   864415.8750
 13.69999981   864594.3750
 13.89000034   864780.9375
 14.07999992   864973.6250
 14.27000046   865161.5000
 14.46000004   865345.5000
 14.64999962   865523.5625
 14.84000015   865702.0625
 15.02999973   865886.8125
 15.22000027   866080.6875
 15.40999985   866276.8125
 15.60000038   866470.3750
 15.78999996   866654.5625
 15.97999954   866825.2500
 16.17000008   866983.4375
 16.36000061   867137.8750
 16.54999924   867298.6875
 16.73999977   867473.3750
 16.93000031   867656.6875
 17.12000084   867844.7500
 17.30999947   868027.6875
 17.50000000   868202.8750
 17.69000053   868369.0625
 17.87999916   868531.0625
 18.06999969   868697.7500
 18.26000023   868875.8750
 18.45000076   869063.0625
 18.63999939   869260.8125
 18.82999992   869456.7500
 19.02000046   869648.2500
 19.20999908   869832.6875
 19.39999962   870011.0000
 19.59000015   870187.5625
 19.78000069   870370.5000
 19.96999931   870558.3125
 20.15999985   870747.4375
 20.35000038   870935.9375
 20.54000092   871115.8750
 20.72999954   871287.7500
 20.92000008   871450.1875
 21.11000061   871608.3750
 21.29999924   871765.3750
 21.48999977   871926.5000
 21.68000031   872089.4375
 21.87000084   872254.2500
 22.05999947   872419.3125
 22.25000000   872581.7500
 22.44000053   872745.0625
 22.62999916   872908.1250
 22.81999969   873071.4375
 23.01000023   873237.4375
 23.20000076   873403.6250
 23.38999939   873570.5625
 23.57999992   873736.9375
 23.77000046   873902.9375
 23.95999908   874067.3750
 24.14999962   874234.3750
 24.34000015   874405.1875
 24.53000069   874579.8750
 24.71999931   874759.6875
 24.90999985   874942.1250
 25.10000038   875122.1250
 25.29000092   875302.8750
 25.47999954   875479.5625
 25.67000008   875658.3125
 25.86000061   875842.6875
 26.04999924   876032.4375
 26.23999977   876225.1875
 26.43000031   876421.6875
 26.62000084   876611.2500
 26.80999947   876796.8750
