 -30.00000000   8484536.000
 -29.80999947   8486270.000
 -29.62000084   8488002.000
 -29.43000031   8489736.000
 -29.23999977   8491468.000
 -29.04999924   8493202.000
 -28.86000061   8494933.000
 -28.67000008   8496666.000
 -28.47999954   8498399.000
 -28.29000092   8500130.000
 -28.10000038   8501861.000
 -27.90999985   8503592.000
 -27.71999931   8505318.000
 -27.53000069   8507042.000
 -27.34000015   8508765.000
 -27.14999962   8510490.000
 -26.95999908   8512216.000
 -26.77000046   8513950.000
 -26.57999992   8515687.000
 -26.38999939   8517427.000
 -26.20000076   8519166.000
 -26.01000023   8520898.000
 -25.81999969   8522620.000
 -25.62999916   8524331.000
 -25.44000053   8526037.000
 -25.25000000   8527742.000
 -25.05999947   8529455.000
 -24.87000084   8531178.000
 -24.68000031   8532912.000
 -24.48999977   8534652.000
 -24.29999924   8536390.000
 -24.11000061   8538122.000
 -23.92000008   8539845.000
 -23.72999954   8541560.000
 -23.54000092   8543275.000
 -23.35000038   8544993.000
 -23.15999985   8546719.000
 -22.96999931   8548450.000
 -22.78000069   8550187.000
 -22.59000015   8551929.000
 -22.39999962   8553671.000
 -22.20999908   8555416.000
 -22.02000046   8557164.000
 -21.82999992   8558912.000
 -21.63999939   8560650.000
 -21.45000076   8562380.000
 -21.26000023   8564097.000
 -21.06999969   8565799.000
 -20.87999916   8567497.000
 -20.69000053   8569199.000
 -20.50000000   8570917.000
 -20.30999947   8572653.000
 -20.12000084   8574402.000
 -19.93000031   8576154.000
 -19.73999977   8577893.000
 -19.54999924   8579610.000
 -19.36000061   8581306.000
 -19.17000008   8582987.000
 -18.97999954   8584666.000
 -18.79000092   8586355.000
 -18.60000038   8588063.000
 -18.40999985   8589782.000
 -18.21999931   8591509.000
 -18.03000069   8593228.000
 -17.84000015   8594938.000
 -17.64999962   8596641.000
 -17.45999908   8598340.000
 -17.27000046   8600039.000
 -17.07999992   8601739.000
 -16.88999939   8603442.000
 -16.70000076   8605147.000
 -16.51000023   8606855.000
 -16.31999969   8608564.000
 -16.12999916   8610277.000
 -15.93999958   8611996.000
 -15.75000000   8613717.000
 -15.56000042   8615440.000
 -15.36999989   8617159.000
 -15.18000031   8618872.000
 -14.98999977   8620582.000
 -14.80000019   8622286.000
 -14.60999966   8623992.000
 -14.42000008   8625700.000
 -14.22999954   8627409.000
 -14.03999996   8629120.000
 -13.85000038   8630827.000
 -13.65999985   8632530.000
 -13.47000027   8634229.000
 -13.27999973   8635923.000
 -13.09000015   8637614.000
 -12.89999962   8639300.000
 -12.71000004   8640983.000
 -12.52000046   8642663.000
 -12.32999992   8644341.000
 -12.14000034   8646021.000
 -11.94999981   8647706.000
 -11.76000023   8649399.000
 -11.56999969   8651102.000
 -11.38000011   8652811.000
 -11.18999958   8654521.000
 -11.00000000   8656232.000
 -10.81000042   8657941.000
 -10.61999989   8659650.000
 -10.43000031   8661361.000
 -10.23999977   8663072.000
 -10.05000019   8664785.000
 -9.859999657   8666495.000
 -9.670000076   8668204.000
 -9.479999542   8669908.000
 -9.289999962   8671613.000
 -9.100000381   8673320.000
 -8.909999847   8675031.000
 -8.720000267   8676743.000
 -8.529999733   8678451.000
 -8.340000153   8680154.000
 -8.149999619   8681847.000
 -7.960000038   8683533.000
 -7.769999981   8685222.000
 -7.579999924   8686916.000
 -7.389999866   8688623.000
 -7.199999809   8690339.000
 -7.010000229   8692058.000
 -6.820000172   8693775.000
 -6.630000114   8695479.000
 -6.440000057   8697171.000
 -6.250000000   8698851.000
 -6.059999943   8700527.000
 -5.869999886   8702203.000
 -5.679999828   8703883.000
 -5.489999771   8705571.000
 -5.300000191   8707258.000
 -5.110000134   8708946.000
 -4.920000076   8710628.000
 -4.730000019   8712303.000
 -4.539999962   8713967.000
 -4.349999905   8715620.000
 -4.159999847   8717262.000
 -3.970000029   8718897.000
 -3.779999971   8720529.000
 -3.589999914   8722165.000
 -3.400000095   8723807.000
 -3.210000038   8725460.000
 -3.019999981   8727121.000
 -2.829999924   8728786.000
 -2.640000105   8730447.000
 -2.450000048   8732101.000
 -2.259999990   8733741.000
 -2.069999933   8735369.000
 -1.879999995   8736990.000
 -1.690000057   8738613.000
 -1.500000000   8740244.000
 -1.309999943   8741888.000
 -1.120000005   8743549.000
 -0.9300000072   8745221.000
 -0.7400000095   8746898.000
 -0.5500000119   8748573.000
 -0.3600000143   8750242.000
 -0.1700000018   8751895.000
 0.1999999955E-01   8753536.000
 0.2099999934   8755168.000
 0.4000000060   8756795.000
 0.5899999738   8758425.000
 0.7799999714   8760059.000
 0.9700000286   8761702.000
 1.159999967   8763352.000
 1.350000024   8765007.000
 1.539999962   8766661.000
 1.730000019   8768312.000
 1.919999957   8769956.000
 2.109999895   8771594.000
 2.299999952   8773228.000
 2.490000010   8774864.000
 2.680000067   8776504.000
 2.869999886   8778152.000
 3.059999943   8779807.000
 3.250000000   8781469.000
 3.440000057   8783130.000
 3.630000114   8784791.000
 3.819999933   8786449.000
 4.010000229   8788104.000
 4.199999809   8789758.000
 4.389999866   8791416.000
 4.579999924   8793077.000
 4.769999981   8794740.000
 4.960000038   8796402.000
 5.150000095   8798061.000
 5.340000153   8799709.000
 5.530000210   8801350.000
 5.719999790   8802982.000
 5.909999847   8804609.000
 6.099999905   8806237.000
 6.289999962   8807865.000
 6.480000019   8809496.000
 6.670000076   8811130.000
 6.860000134   8812763.000
 7.050000191   8814395.000
 7.239999771   8816031.000
 7.429999828   8817669.000
 7.619999886   8819314.000
 7.809999943   8820960.000
 8.000000000   8822603.000
 8.189999580   8824237.000
 8.380000114   8825862.000
 8.569999695   8827482.000
 8.760000229   8829102.000
 8.949999809   8830733.000
 9.140000343   8832375.000
 9.329999924   8834031.000
 9.520000458   8835691.000
 9.710000038   8837351.000
 9.899999619   8839003.000
 10.09000015   8840648.000
 10.27999973   8842287.000
 10.47000027   8843924.000
 10.65999985   8845561.000
 10.85000038   8847201.000
 11.03999996   8848839.000
 11.22999954   8850472.000
 11.42000008   8852101.000
 11.60999966   8853727.000
 11.80000019   8855347.000
 11.98999977   8856973.000
 12.18000031   8858603.000
 12.36999989   8860232.000
 12.56000042   8861859.000
 12.75000000   8863484.000
 12.93999958   8865103.000
 13.13000011   8866715.000
 13.31999969   8868320.000
 13.51000023   8869921.000
 13.69999981   8871518.000
 13.89000034   8873118.000
 14.07999992   8874718.000
 14.27000046   8876321.000
 14.46000004   8877931.000
 14.64999962   8879544.000
 14.84000015   8881158.000
 15.02999973   8882767.000
 15.22000027   8884368.000
 15.40999985   8885964.000
 15.60000038   8887556.000
 15.78999996   8889153.000
 15.97999954   8890760.000
 16.17000008   8892379.000
 16.36000061   8894007.000
 16.54999924   8895643.000
 16.73999977   8897274.000
 16.93000031   8898896.000
 17.12000084   8900510.000
 17.30999947   8902119.000
 17.50000000   8903728.000
 17.69000053   8905339.000
 17.87999916   8906954.000
 18.06999969   8908570.000
 18.26000023   8910183.000
 18.45000076   8911794.000
 18.63999939   8913403.000
 18.82999992   8915015.000
 19.02000046   8916631.000
 19.20999908   8918252.000
 19.39999962   8919873.000
 19.59000015   8921484.000
 19.78000069   8923086.000
 19.96999931   8924677.000
 20.15999985   8926263.000
 20.35000038   8927857.000
 20.54000092   8929459.000
 20.72999954   8931077.000
 20.92000008   8932703.000
 21.11000061   8934328.000
 21.29999924   8935945.000
 21.48999977   8937550.000
 21.68000031   8939143.000
 21.87000084   8940731.000
 22.05999947   8942320.000
 22.25000000   8943910.000
 22.44000053   8945504.000
 22.62999916   8947101.000
 22.81999969   8948695.000
 23.01000023   8950286.000
 23.20000076   8951873.000
 23.38999939   8953457.000
 23.57999992   8955042.000
 23.77000046   8956627.000
 23.95999908   8958210.000
 24.14999962   8959788.000
 24.34000015   8961361.000
 24.53000069   8962934.000
 24.71999931   8964511.000
 24.90999985   8966092.000
 25.10000038   8967682.000
 25.29000092   8969278.000
 25.47999954   8970873.000
 25.67000008   8972472.000
 25.86000061   8974064.000
 26.04999924   8975649.000
 26.23999977   8977230.000
 26.43000031   8978810.000
 26.62000084   8980386.000
 26.80999947   8981963.000
