 -30.00000000   7010719.000
 -29.80999947   7012153.500
 -29.62000084   7013590.500
 -29.43000031   7015028.000
 -29.23999977   7016464.500
 -29.04999924   7017900.500
 -28.86000061   7019332.000
 -28.67000008   7020764.000
 -28.47999954   7022195.500
 -28.29000092   7023625.500
 -28.10000038   7025058.000
 -27.90999985   7026490.500
 -27.71999931   7027922.500
 -27.53000069   7029356.000
 -27.34000015   7030786.500
 -27.14999962   7032215.000
 -26.95999908   7033644.000
 -26.77000046   7035074.500
 -26.57999992   7036505.000
 -26.38999939   7037938.500
 -26.20000076   7039375.500
 -26.01000023   7040812.500
 -25.81999969   7042251.000
 -25.62999916   7043685.000
 -25.44000053   7045116.000
 -25.25000000   7046540.500
 -25.05999947   7047964.000
 -24.87000084   7049385.500
 -24.68000031   7050812.000
 -24.48999977   7052244.500
 -24.29999924   7053680.500
 -24.11000061   7055119.000
 -23.92000008   7056553.000
 -23.72999954   7057980.500
 -23.54000092   7059398.000
 -23.35000038   7060805.000
 -23.15999985   7062210.000
 -22.96999931   7063613.000
 -22.78000069   7065022.000
 -22.59000015   7066438.500
 -22.39999962   7067864.500
 -22.20999908   7069299.000
 -22.02000046   7070736.000
 -21.82999992   7072172.500
 -21.63999939   7073598.000
 -21.45000076   7075015.000
 -21.26000023   7076421.000
 -21.06999969   7077822.000
 -20.87999916   7079225.000
 -20.69000053   7080637.000
 -20.50000000   7082060.000
 -20.30999947   7083491.500
 -20.12000084   7084926.500
 -19.93000031   7086351.000
 -19.73999977   7087760.000
 -19.54999924   7089153.000
 -19.36000061   7090532.000
 -19.17000008   7091906.000
 -18.97999954   7093287.500
 -18.79000092   7094684.000
 -18.60000038   7096096.000
 -18.40999985   7097522.500
 -18.21999931   7098953.000
 -18.03000069   7100377.500
 -17.84000015   7101790.000
 -17.64999962   7103192.500
 -17.45999908   7104586.500
 -17.27000046   7105980.500
 -17.07999992   7107381.000
 -16.88999939   7108793.000
 -16.70000076   7110219.500
 -16.51000023   7111656.500
 -16.31999969   7113101.500
 -16.12999916   7114548.500
 -15.93999958   7115993.000
 -15.75000000   7117430.000
 -15.56000042   7118857.000
 -15.36999989   7120275.000
 -15.18000031   7121683.000
 -14.98999977   7123084.500
 -14.80000019   7124481.000
 -14.60999966   7125877.000
 -14.42000008   7127270.500
 -14.22999954   7128666.500
 -14.03999996   7130063.000
 -13.85000038   7131463.000
 -13.65999985   7132866.500
 -13.47000027   7134271.500
 -13.27999973   7135676.500
 -13.09000015   7137083.000
 -12.89999962   7138486.500
 -12.71000004   7139891.000
 -12.52000046   7141294.500
 -12.32999992   7142699.500
 -12.14000034   7144108.500
 -11.94999981   7145515.000
 -11.76000023   7146921.500
 -11.56999969   7148325.500
 -11.38000011   7149727.000
 -11.18999958   7151123.000
 -11.00000000   7152519.500
 -10.81000042   7153916.000
 -10.61999989   7155316.000
 -10.43000031   7156718.500
 -10.23999977   7158120.500
 -10.05000019   7159522.500
 -9.859999657   7160922.500
 -9.670000076   7162320.000
 -9.479999542   7163715.000
 -9.289999962   7165107.000
 -9.100000381   7166501.000
 -8.909999847   7167895.000
 -8.720000267   7169288.000
 -8.529999733   7170681.000
 -8.340000153   7172071.500
 -8.149999619   7173462.500
 -7.960000038   7174853.500
 -7.769999981   7176246.000
 -7.579999924   7177641.500
 -7.389999866   7179037.000
 -7.199999809   7180428.000
 -7.010000229   7181816.500
 -6.820000172   7183199.000
 -6.630000114   7184577.500
 -6.440000057   7185956.500
 -6.250000000   7187339.500
 -6.059999943   7188725.500
 -5.869999886   7190115.500
 -5.679999828   7191507.500
 -5.489999771   7192897.500
 -5.300000191   7194282.000
 -5.110000134   7195664.000
 -4.920000076   7197042.000
 -4.730000019   7198418.000
 -4.539999962   7199796.500
 -4.349999905   7201175.000
 -4.159999847   7202556.500
 -3.970000029   7203941.000
 -3.779999971   7205326.500
 -3.589999914   7206714.500
 -3.400000095   7208100.000
 -3.210000038   7209480.500
 -3.019999981   7210857.500
 -2.829999924   7212223.000
 -2.640000105   7213581.000
 -2.450000048   7214934.000
 -2.259999990   7216285.500
 -2.069999933   7217638.500
 -1.879999995   7218996.500
 -1.690000057   7220359.000
 -1.500000000   7221726.000
 -1.309999943   7223092.000
 -1.120000005   7224457.000
 -0.9300000072   7225816.500
 -0.7400000095   7227175.000
 -0.5500000119   7228537.000
 -0.3600000143   7229911.000
 -0.1700000018   7231293.000
 0.1999999955E-01   7232689.000
 0.2099999934   7234093.000
 0.4000000060   7235497.000
 0.5899999738   7236895.500
 0.7799999714   7238282.000
 0.9700000286   7239652.000
 1.159999967   7241007.000
 1.350000024   7242348.000
 1.539999962   7243679.500
 1.730000019   7245011.000
 1.919999957   7246344.500
 2.109999895   7247681.000
 2.299999952   7249023.000
 2.490000010   7250364.500
 2.680000067   7251705.000
 2.869999886   7253046.000
 3.059999943   7254386.000
 3.250000000   7255730.000
 3.440000057   7257085.000
 3.630000114   7258449.000
 3.819999933   7259818.500
 4.010000229   7261195.500
 4.199999809   7262571.000
 4.389999866   7263942.500
 4.579999924   7265310.500
 4.769999981   7266671.000
 4.960000038   7268027.500
 5.150000095   7269382.000
 5.340000153   7270730.000
 5.530000210   7272075.000
 5.719999790   7273416.000
 5.909999847   7274753.500
 6.099999905   7276090.500
 6.289999962   7277429.500
 6.480000019   7278770.000
 6.670000076   7280111.000
 6.860000134   7281451.000
 7.050000191   7282788.000
 7.239999771   7284121.000
 7.429999828   7285451.500
 7.619999886   7286783.000
 7.809999943   7288117.500
 8.000000000   7289454.000
 8.189999580   7290797.000
 8.380000114   7292141.000
 8.569999695   7293482.500
 8.760000229   7294825.500
 8.949999809   7296167.500
 9.140000343   7297507.000
 9.329999924   7298846.500
 9.520000458   7300190.000
 9.710000038   7301534.000
 9.899999619   7302882.000
 10.09000015   7304230.500
 10.27999973   7305585.500
 10.47000027   7306943.500
 10.65999985   7308307.500
 10.85000038   7309676.000
 11.03999996   7311044.000
 11.22999954   7312409.000
 11.42000008   7313770.000
 11.60999966   7315121.500
 11.80000019   7316467.500
 11.98999977   7317807.000
 12.18000031   7319145.500
 12.36999989   7320481.500
 12.56000042   7321817.500
 12.75000000   7323150.000
 12.93999958   7324477.000
 13.13000011   7325797.500
 13.31999969   7327110.000
 13.51000023   7328410.500
 13.69999981   7329703.500
 13.89000034   7330998.000
 14.07999992   7332296.500
 14.27000046   7333608.000
 14.46000004   7334935.000
 14.64999962   7336277.000
 14.84000015   7337626.000
 15.02999973   7338977.000
 15.22000027   7340323.000
 15.40999985   7341657.000
 15.60000038   7342979.500
 15.78999996   7344298.000
 15.97999954   7345617.000
 16.17000008   7346942.500
 16.36000061   7348278.500
 16.54999924   7349619.000
 16.73999977   7350964.000
 16.93000031   7352305.000
 17.12000084   7353640.500
 17.30999947   7354968.000
 17.50000000   7356289.500
 17.69000053   7357608.500
 17.87999916   7358927.000
 18.06999969   7360248.500
 18.26000023   7361570.000
 18.45000076   7362894.500
 18.63999939   7364220.500
 18.82999992   7365546.000
 19.02000046   7366869.000
 19.20999908   7368190.500
 19.39999962   7369506.000
 19.59000015   7370817.000
 19.78000069   7372123.000
 19.96999931   7373427.000
 20.15999985   7374733.500
 20.35000038   7376042.000
 20.54000092   7377354.500
 20.72999954   7378671.500
 20.92000008   7379986.000
 21.11000061   7381299.000
 21.29999924   7382608.500
 21.48999977   7383917.000
 21.68000031   7385225.500
 21.87000084   7386539.000
 22.05999947   7387857.500
 22.25000000   7389179.500
 22.44000053   7390502.500
 22.62999916   7391822.500
 22.81999969   7393139.500
 23.01000023   7394451.000
 23.20000076   7395756.000
 23.38999939   7397060.500
 23.57999992   7398361.500
 23.77000046   7399666.500
 23.95999908   7400971.500
 24.14999962   7402275.500
 24.34000015   7403578.500
 24.53000069   7404882.500
 24.71999931   7406183.500
 24.90999985   7407481.500
 25.10000038   7408776.500
 25.29000092   7410067.500
 25.47999954   7411355.000
 25.67000008   7412644.500
 25.86000061   7413935.000
 26.04999924   7415227.500
 26.23999977   7416527.000
 26.43000031   7417829.500
 26.62000084   7419134.500
 26.80999947   7420440.500
