 -30.00000000   2243172.000
 -29.80999947   2243694.500
 -29.62000084   2244234.250
 -29.43000031   2244735.750
 -29.23999977   2245191.250
 -29.04999924   2245642.500
 -28.86000061   2246142.000
 -28.67000008   2246690.000
 -28.47999954   2247251.500
 -28.29000092   2247768.000
 -28.10000038   2248225.250
 -27.90999985   2248666.500
 -27.71999931   2249143.500
 -27.53000069   2249677.500
 -27.34000015   2250233.250
 -27.14999962   2250755.000
 -26.95999908   2251221.000
 -26.77000046   2251658.250
 -26.57999992   2252124.500
 -26.38999939   2252645.000
 -26.20000076   2253199.500
 -26.01000023   2253726.000
 -25.81999969   2254199.500
 -25.62999916   2254645.250
 -25.44000053   2255117.000
 -25.25000000   2255649.000
 -25.05999947   2256217.500
 -24.87000084   2256766.250
 -24.68000031   2257259.750
 -24.48999977   2257714.000
 -24.29999924   2258183.750
 -24.11000061   2258706.750
 -23.92000008   2259269.000
 -23.72999954   2259818.500
 -23.54000092   2260313.000
 -23.35000038   2260762.250
 -23.15999985   2261222.000
 -22.96999931   2261737.250
 -22.78000069   2262293.750
 -22.59000015   2262844.250
 -22.39999962   2263341.500
 -22.20999908   2263785.750
 -22.02000046   2264229.500
 -21.82999992   2264719.000
 -21.63999939   2265254.750
 -21.45000076   2265789.750
 -21.26000023   2266271.250
 -21.06999969   2266695.000
 -20.87999916   2267113.500
 -20.69000053   2267577.250
 -20.50000000   2268092.500
 -20.30999947   2268619.750
 -20.12000084   2269102.250
 -19.93000031   2269532.250
 -19.73999977   2269950.500
 -19.54999924   2270410.750
 -19.36000061   2270926.750
 -19.17000008   2271459.250
 -18.97999954   2271954.000
 -18.79000092   2272392.750
 -18.60000038   2272814.750
 -18.40999985   2273267.000
 -18.21999931   2273777.000
 -18.03000069   2274312.000
 -17.84000015   2274817.000
 -17.64999962   2275265.250
 -17.45999908   2275681.500
 -17.27000046   2276125.000
 -17.07999992   2276618.250
 -16.88999939   2277138.000
 -16.70000076   2277629.750
 -16.51000023   2278066.250
 -16.31999969   2278470.250
 -16.12999916   2278890.500
 -15.93999958   2279364.500
 -15.75000000   2279874.500
 -15.56000042   2280366.500
 -15.36999989   2280811.250
 -15.18000031   2281219.000
 -14.98999977   2281635.000
 -14.80000019   2282100.000
 -14.60999966   2282597.250
 -14.42000008   2283084.750
 -14.22999954   2283525.500
 -14.03999996   2283929.000
 -13.85000038   2284335.250
 -13.65999985   2284791.500
 -13.47000027   2285290.500
 -13.27999973   2285790.500
 -13.09000015   2286251.000
 -12.89999962   2286666.000
 -12.71000004   2287077.500
 -12.52000046   2287527.750
 -12.32999992   2288019.250
 -12.14000034   2288514.500
 -11.94999981   2288969.500
 -11.76000023   2289377.250
 -11.56999969   2289775.000
 -11.38000011   2290206.000
 -11.18999958   2290683.250
 -11.00000000   2291171.250
 -10.81000042   2291633.250
 -10.61999989   2292048.750
 -10.43000031   2292450.750
 -10.23999977   2292887.750
 -10.05000019   2293372.000
 -9.859999657   2293873.750
 -9.670000076   2294345.500
 -9.479999542   2294770.250
 -9.289999962   2295166.000
 -9.100000381   2295583.750
 -8.909999847   2296048.250
 -8.720000267   2296538.000
 -8.529999733   2297009.500
 -8.340000153   2297436.000
 -8.149999619   2297840.500
 -7.960000038   2298266.750
 -7.769999981   2298737.000
 -7.579999924   2299238.500
 -7.389999866   2299726.500
 -7.199999809   2300174.750
 -7.010000229   2300595.250
 -6.820000172   2301035.250
 -6.630000114   2301517.750
 -6.440000057   2302032.750
 -6.250000000   2302539.250
 -6.059999943   2303005.250
 -5.869999886   2303437.250
 -5.679999828   2303878.000
 -5.489999771   2304356.750
 -5.300000191   2304872.250
 -5.110000134   2305387.500
 -4.920000076   2305870.750
 -4.730000019   2306321.500
 -4.539999962   2306779.000
 -4.349999905   2307274.750
 -4.159999847   2307812.250
 -3.970000029   2308354.250
 -3.779999971   2308862.500
 -3.589999914   2309333.750
 -3.400000095   2309801.250
 -3.210000038   2310297.750
 -3.019999981   2310832.500
 -2.829999924   2311373.750
 -2.640000105   2311888.750
 -2.450000048   2312366.500
 -2.259999990   2312831.750
 -2.069999933   2313319.250
 -1.879999995   2313849.500
 -1.690000057   2314393.750
 -1.500000000   2314919.000
 -1.309999943   2315408.500
 -1.120000005   2315880.250
 -0.9300000072   2316372.000
 -0.7400000095   2316901.000
 -0.5500000119   2317450.500
 -0.3600000143   2317989.500
 -0.1700000018   2318490.750
 0.1999999955E-01   2318966.000
 0.2099999934   2319453.250
 0.4000000060   2319974.750
 0.5899999738   2320519.000
 0.7799999714   2321056.250
 0.9700000286   2321555.000
 1.159999967   2322027.750
 1.350000024   2322505.250
 1.539999962   2323013.250
 1.730000019   2323547.000
 1.919999957   2324079.000
 2.109999895   2324582.500
 2.299999952   2325058.000
 2.490000010   2325540.500
 2.680000067   2326051.500
 2.869999886   2326593.750
 3.059999943   2327141.500
 3.250000000   2327662.750
 3.440000057   2328159.000
 3.630000114   2328650.750
 3.819999933   2329163.000
 4.010000229   2329700.250
 4.199999809   2330240.750
 4.389999866   2330757.750
 4.579999924   2331241.500
 4.769999981   2331720.250
 4.960000038   2332216.250
 5.150000095   2332740.000
 5.340000153   2333269.750
 5.530000210   2333780.000
 5.719999790   2334263.750
 5.909999847   2334738.750
 6.099999905   2335230.500
 6.289999962   2335751.500
 6.480000019   2336280.500
 6.670000076   2336792.000
 6.860000134   2337270.500
 7.050000191   2337725.500
 7.239999771   2338185.750
 7.429999828   2338668.500
 7.619999886   2339164.000
 7.809999943   2339649.500
 8.000000000   2340107.750
 8.189999580   2340547.250
 8.380000114   2340993.500
 8.569999695   2341465.500
 8.760000229   2341956.000
 8.949999809   2342447.500
 9.140000343   2342915.500
 9.329999924   2343364.000
 9.520000458   2343819.250
 9.710000038   2344301.500
 9.899999619   2344813.500
 10.09000015   2345332.250
 10.27999973   2345830.500
 10.47000027   2346304.500
 10.65999985   2346772.500
 10.85000038   2347256.250
 11.03999996   2347760.000
 11.22999954   2348263.750
 11.42000008   2348747.000
 11.60999966   2349198.250
 11.80000019   2349636.000
 11.98999977   2350089.750
 12.18000031   2350572.500
 12.36999989   2351070.000
 12.56000042   2351558.500
 12.75000000   2352024.000
 12.93999958   2352486.500
 13.13000011   2352970.750
 13.31999969   2353487.500
 13.51000023   2354026.250
 13.69999981   2354558.000
 13.89000034   2355064.750
 14.07999992   2355548.000
 14.27000046   2356040.000
 14.46000004   2356558.750
 14.64999962   2357098.500
 14.84000015   2357634.500
 15.02999973   2358144.250
 15.22000027   2358631.000
 15.40999985   2359116.500
 15.60000038   2359619.750
 15.78999996   2360144.000
 15.97999954   2360667.250
 16.17000008   2361167.000
 16.36000061   2361639.250
 16.54999924   2362104.000
 16.73999977   2362585.500
 16.93000031   2363095.000
 17.12000084   2363615.250
 17.30999947   2364123.000
 17.50000000   2364607.750
 17.69000053   2365084.000
 17.87999916   2365578.500
 18.06999969   2366099.500
 18.26000023   2366632.250
 18.45000076   2367148.750
 18.63999939   2367637.250
 18.82999992   2368109.500
 19.02000046   2368589.250
 19.20999908   2369094.500
 19.39999962   2369619.500
 19.59000015   2370142.250
 19.78000069   2370642.500
 19.96999931   2371129.750
 20.15999985   2371623.500
 20.35000038   2372138.000
 20.54000092   2372667.500
 20.72999954   2373194.000
 20.92000008   2373690.500
 21.11000061   2374164.250
 21.29999924   2374642.250
 21.48999977   2375141.500
 21.68000031   2375659.000
 21.87000084   2376176.500
 22.05999947   2376671.750
 22.25000000   2377149.750
 22.44000053   2377629.250
 22.62999916   2378129.500
 22.81999969   2378650.250
 23.01000023   2379165.250
 23.20000076   2379651.500
 23.38999939   2380106.750
 23.57999992   2380556.000
 23.77000046   2381020.250
 23.95999908   2381506.500
 24.14999962   2381993.500
 24.34000015   2382455.500
 24.53000069   2382895.500
 24.71999931   2383334.000
 24.90999985   2383793.500
 25.10000038   2384280.000
 25.29000092   2384774.500
 25.47999954   2385245.250
 25.67000008   2385690.750
 25.86000061   2386129.750
 26.04999924   2386584.000
 26.23999977   2387065.750
 26.43000031   2387558.750
 26.62000084   2388038.250
 26.80999947   2388490.750
