 -30.00000000   6144129.500
 -29.80999947   6145374.500
 -29.62000084   6146608.500
 -29.43000031   6147842.000
 -29.23999977   6149074.500
 -29.04999924   6150312.000
 -28.86000061   6151553.000
 -28.67000008   6152802.000
 -28.47999954   6154055.500
 -28.29000092   6155309.500
 -28.10000038   6156557.000
 -27.90999985   6157800.000
 -27.71999931   6159032.500
 -27.53000069   6160259.000
 -27.34000015   6161479.500
 -27.14999962   6162702.500
 -26.95999908   6163930.500
 -26.77000046   6165167.500
 -26.57999992   6166415.000
 -26.38999939   6167670.000
 -26.20000076   6168929.500
 -26.01000023   6170185.500
 -25.81999969   6171436.000
 -25.62999916   6172677.000
 -25.44000053   6173907.500
 -25.25000000   6175127.000
 -25.05999947   6176347.000
 -24.87000084   6177569.000
 -24.68000031   6178802.000
 -24.48999977   6180049.000
 -24.29999924   6181311.500
 -24.11000061   6182579.500
 -23.92000008   6183853.000
 -23.72999954   6185119.000
 -23.54000092   6186378.000
 -23.35000038   6187624.000
 -23.15999985   6188858.500
 -22.96999931   6190090.000
 -22.78000069   6191324.500
 -22.59000015   6192570.000
 -22.39999962   6193829.500
 -22.20999908   6195104.000
 -22.02000046   6196386.500
 -21.82999992   6197668.500
 -21.63999939   6198941.000
 -21.45000076   6200199.500
 -21.26000023   6201445.000
 -21.06999969   6202675.000
 -20.87999916   6203895.500
 -20.69000053   6205114.000
 -20.50000000   6206337.000
 -20.30999947   6207563.500
 -20.12000084   6208799.000
 -19.93000031   6210037.000
 -19.73999977   6211275.000
 -19.54999924   6212505.500
 -19.36000061   6213728.000
 -19.17000008   6214942.000
 -18.97999954   6216148.000
 -18.79000092   6217350.000
 -18.60000038   6218555.000
 -18.40999985   6219766.000
 -18.21999931   6220981.500
 -18.03000069   6222210.500
 -17.84000015   6223453.000
 -17.64999962   6224706.500
 -17.45999908   6225968.000
 -17.27000046   6227229.500
 -17.07999992   6228487.500
 -16.88999939   6229736.000
 -16.70000076   6230974.500
 -16.51000023   6232204.000
 -16.31999969   6233426.000
 -16.12999916   6234643.500
 -15.93999958   6235859.500
 -15.75000000   6237076.500
 -15.56000042   6238298.000
 -15.36999989   6239524.500
 -15.18000031   6240754.500
 -14.98999977   6241985.000
 -14.80000019   6243209.000
 -14.60999966   6244428.000
 -14.42000008   6245641.500
 -14.22999954   6246853.500
 -14.03999996   6248065.000
 -13.85000038   6249281.000
 -13.65999985   6250502.500
 -13.47000027   6251734.500
 -13.27999973   6252970.500
 -13.09000015   6254208.500
 -12.89999962   6255445.000
 -12.71000004   6256672.500
 -12.52000046   6257887.500
 -12.32999992   6259096.500
 -12.14000034   6260300.000
 -11.94999981   6261507.500
 -11.76000023   6262723.000
 -11.56999969   6263949.500
 -11.38000011   6265186.500
 -11.18999958   6266429.000
 -11.00000000   6267671.000
 -10.81000042   6268910.500
 -10.61999989   6270143.000
 -10.43000031   6271365.500
 -10.23999977   6272581.000
 -10.05000019   6273794.000
 -9.859999657   6275007.000
 -9.670000076   6276226.000
 -9.479999542   6277451.500
 -9.289999962   6278684.000
 -9.100000381   6279916.500
 -8.909999847   6281150.000
 -8.720000267   6282376.500
 -8.529999733   6283594.500
 -8.340000153   6284808.000
 -8.149999619   6286017.500
 -7.960000038   6287224.500
 -7.769999981   6288431.500
 -7.579999924   6289641.000
 -7.389999866   6290853.500
 -7.199999809   6292069.500
 -7.010000229   6293286.000
 -6.820000172   6294501.000
 -6.630000114   6295713.500
 -6.440000057   6296923.500
 -6.250000000   6298134.500
 -6.059999943   6299349.000
 -5.869999886   6300568.000
 -5.679999828   6301789.000
 -5.489999771   6303013.000
 -5.300000191   6304235.000
 -5.110000134   6305454.000
 -4.920000076   6306669.500
 -4.730000019   6307877.000
 -4.539999962   6309080.500
 -4.349999905   6310280.000
 -4.159999847   6311475.000
 -3.970000029   6312673.000
 -3.779999971   6313870.500
 -3.589999914   6315068.000
 -3.400000095   6316266.500
 -3.210000038   6317463.000
 -3.019999981   6318655.500
 -2.829999924   6319848.000
 -2.640000105   6321041.000
 -2.450000048   6322239.500
 -2.259999990   6323442.500
 -2.069999933   6324655.000
 -1.879999995   6325869.500
 -1.690000057   6327085.500
 -1.500000000   6328300.500
 -1.309999943   6329508.500
 -1.120000005   6330711.000
 -0.9300000072   6331907.000
 -0.7400000095   6333099.500
 -0.5500000119   6334294.000
 -0.3600000143   6335494.000
 -0.1700000018   6336700.500
 0.1999999955E-01   6337911.500
 0.2099999934   6339122.500
 0.4000000060   6340328.500
 0.5899999738   6341530.500
 0.7799999714   6342722.000
 0.9700000286   6343908.000
 1.159999967   6345093.000
 1.350000024   6346277.500
 1.539999962   6347467.500
 1.730000019   6348667.500
 1.919999957   6349873.500
 2.109999895   6351085.000
 2.299999952   6352298.000
 2.490000010   6353507.500
 2.680000067   6354705.500
 2.869999886   6355897.000
 3.059999943   6357077.500
 3.250000000   6358253.500
 3.440000057   6359428.500
 3.630000114   6360604.000
 3.819999933   6361785.000
 4.010000229   6362972.500
 4.199999809   6364167.500
 4.389999866   6365368.500
 4.579999924   6366577.000
 4.769999981   6367783.000
 4.960000038   6368987.500
 5.150000095   6370186.000
 5.340000153   6371375.000
 5.530000210   6372557.500
 5.719999790   6373736.500
 5.909999847   6374915.000
 6.099999905   6376097.000
 6.289999962   6377285.500
 6.480000019   6378480.000
 6.670000076   6379679.500
 6.860000134   6380884.000
 7.050000191   6382090.000
 7.239999771   6383293.500
 7.429999828   6384497.500
 7.619999886   6385700.000
 7.809999943   6386903.000
 8.000000000   6388108.000
 8.189999580   6389318.000
 8.380000114   6390528.500
 8.569999695   6391737.500
 8.760000229   6392945.000
 8.949999809   6394146.500
 9.140000343   6395346.000
 9.329999924   6396540.500
 9.520000458   6397730.000
 9.710000038   6398918.000
 9.899999619   6400099.500
 10.09000015   6401279.000
 10.27999973   6402455.500
 10.47000027   6403635.000
 10.65999985   6404815.000
 10.85000038   6405998.500
 11.03999996   6407187.000
 11.22999954   6408375.500
 11.42000008   6409566.500
 11.60999966   6410753.000
 11.80000019   6411935.500
 11.98999977   6413114.000
 12.18000031   6414290.500
 12.36999989   6415469.000
 12.56000042   6416651.500
 12.75000000   6417842.000
 12.93999958   6419035.500
 13.13000011   6420229.500
 13.31999969   6421423.500
 13.51000023   6422610.500
 13.69999981   6423791.500
 13.89000034   6424968.000
 14.07999992   6426144.500
 14.27000046   6427322.500
 14.46000004   6428505.000
 14.64999962   6429695.000
 14.84000015   6430891.500
 15.02999973   6432093.000
 15.22000027   6433297.500
 15.40999985   6434497.500
 15.60000038   6435689.000
 15.78999996   6436871.500
 15.97999954   6438045.500
 16.17000008   6439217.500
 16.36000061   6440386.500
 16.54999924   6441554.500
 16.73999977   6442723.000
 16.93000031   6443891.500
 17.12000084   6445058.000
 17.30999947   6446220.500
 17.50000000   6447379.500
 17.69000053   6448531.000
 17.87999916   6449675.500
 18.06999969   6450813.000
 18.26000023   6451948.500
 18.45000076   6453082.500
 18.63999939   6454219.000
 18.82999992   6455358.000
 19.02000046   6456508.000
 19.20999908   6457664.000
 19.39999962   6458829.500
 19.59000015   6460000.500
 19.78000069   6461172.500
 19.96999931   6462341.500
 20.15999985   6463505.000
 20.35000038   6464658.500
 20.54000092   6465805.500
 20.72999954   6466950.500
 20.92000008   6468099.000
 21.11000061   6469251.000
 21.29999924   6470408.000
 21.48999977   6471569.000
 21.68000031   6472730.500
 21.87000084   6473887.000
 22.05999947   6475037.500
 22.25000000   6476176.000
 22.44000053   6477301.500
 22.62999916   6478416.500
 22.81999969   6479524.000
 23.01000023   6480626.000
 23.20000076   6481732.000
 23.38999939   6482843.500
 23.57999992   6483964.000
 23.77000046   6485093.000
 23.95999908   6486225.500
 24.14999962   6487365.000
 24.34000015   6488505.500
 24.53000069   6489643.500
 24.71999931   6490775.500
 24.90999985   6491900.500
 25.10000038   6493020.000
 25.29000092   6494138.500
 25.47999954   6495263.500
 25.67000008   6496397.500
 25.86000061   6497539.500
 26.04999924   6498690.500
 26.23999977   6499841.500
 26.43000031   6500990.000
 26.62000084   6502133.000
 26.80999947   6503270.000
