 -30.00000000   -8890248.000
 -29.80999947   -8892057.000
 -29.62000084   -8893854.000
 -29.43000031   -8895652.000
 -29.23999977   -8897452.000
 -29.04999924   -8899253.000
 -28.86000061   -8901060.000
 -28.67000008   -8902870.000
 -28.47999954   -8904683.000
 -28.29000092   -8906495.000
 -28.10000038   -8908305.000
 -27.90999985   -8910108.000
 -27.71999931   -8911906.000
 -27.53000069   -8913697.000
 -27.34000015   -8915489.000
 -27.14999962   -8917284.000
 -26.95999908   -8919082.000
 -26.77000046   -8920890.000
 -26.57999992   -8922703.000
 -26.38999939   -8924515.000
 -26.20000076   -8926327.000
 -26.01000023   -8928136.000
 -25.81999969   -8929938.000
 -25.62999916   -8931732.000
 -25.44000053   -8933519.000
 -25.25000000   -8935308.000
 -25.05999947   -8937100.000
 -24.87000084   -8938897.000
 -24.68000031   -8940706.000
 -24.48999977   -8942519.000
 -24.29999924   -8944331.000
 -24.11000061   -8946137.000
 -23.92000008   -8947932.000
 -23.72999954   -8949714.000
 -23.54000092   -8951486.000
 -23.35000038   -8953252.000
 -23.15999985   -8955021.000
 -22.96999931   -8956797.000
 -22.78000069   -8958584.000
 -22.59000015   -8960382.000
 -22.39999962   -8962188.000
 -22.20999908   -8963999.000
 -22.02000046   -8965803.000
 -21.82999992   -8967600.000
 -21.63999939   -8969386.000
 -21.45000076   -8971165.000
 -21.26000023   -8972938.000
 -21.06999969   -8974707.000
 -20.87999916   -8976480.000
 -20.69000053   -8978254.000
 -20.50000000   -8980032.000
 -20.30999947   -8981816.000
 -20.12000084   -8983599.000
 -19.93000031   -8985382.000
 -19.73999977   -8987162.000
 -19.54999924   -8988937.000
 -19.36000061   -8990705.000
 -19.17000008   -8992474.000
 -18.97999954   -8994247.000
 -18.79000092   -8996024.000
 -18.60000038   -8997810.000
 -18.40999985   -8999606.000
 -18.21999931   -9001406.000
 -18.03000069   -9003212.000
 -17.84000015   -9005022.000
 -17.64999962   -9006834.000
 -17.45999908   -9008642.000
 -17.27000046   -9010444.000
 -17.07999992   -9012235.000
 -16.88999939   -9014020.000
 -16.70000076   -9015798.000
 -16.51000023   -9017576.000
 -16.31999969   -9019353.000
 -16.12999916   -9021134.000
 -15.93999958   -9022919.000
 -15.75000000   -9024708.000
 -15.56000042   -9026500.000
 -15.36999989   -9028289.000
 -15.18000031   -9030072.000
 -14.98999977   -9031842.000
 -14.80000019   -9033599.000
 -14.60999966   -9035350.000
 -14.42000008   -9037098.000
 -14.22999954   -9038847.000
 -14.03999996   -9040606.000
 -13.85000038   -9042375.000
 -13.65999985   -9044152.000
 -13.47000027   -9045933.000
 -13.27999973   -9047716.000
 -13.09000015   -9049496.000
 -12.89999962   -9051270.000
 -12.71000004   -9053035.000
 -12.52000046   -9054794.000
 -12.32999992   -9056551.000
 -12.14000034   -9058305.000
 -11.94999981   -9060062.000
 -11.76000023   -9061823.000
 -11.56999969   -9063586.000
 -11.38000011   -9065350.000
 -11.18999958   -9067115.000
 -11.00000000   -9068877.000
 -10.81000042   -9070636.000
 -10.61999989   -9072393.000
 -10.43000031   -9074149.000
 -10.23999977   -9075905.000
 -10.05000019   -9077662.000
 -9.859999657   -9079423.000
 -9.670000076   -9081186.000
 -9.479999542   -9082951.000
 -9.289999962   -9084713.000
 -9.100000381   -9086467.000
 -8.909999847   -9088211.000
 -8.720000267   -9089947.000
 -8.529999733   -9091677.000
 -8.340000153   -9093403.000
 -8.149999619   -9095133.000
 -7.960000038   -9096867.000
 -7.769999981   -9098602.000
 -7.579999924   -9100339.000
 -7.389999866   -9102071.000
 -7.199999809   -9103796.000
 -7.010000229   -9105513.000
 -6.820000172   -9107224.000
 -6.630000114   -9108931.000
 -6.440000057   -9110643.000
 -6.250000000   -9112361.000
 -6.059999943   -9114089.000
 -5.869999886   -9115832.000
 -5.679999828   -9117585.000
 -5.489999771   -9119342.000
 -5.300000191   -9121102.000
 -5.110000134   -9122857.000
 -4.920000076   -9124606.000
 -4.730000019   -9126350.000
 -4.539999962   -9128091.000
 -4.349999905   -9129832.000
 -4.159999847   -9131576.000
 -3.970000029   -9133325.000
 -3.779999971   -9135078.000
 -3.589999914   -9136833.000
 -3.400000095   -9138583.000
 -3.210000038   -9140327.000
 -3.019999981   -9142064.000
 -2.829999924   -9143795.000
 -2.640000105   -9145524.000
 -2.450000048   -9147254.000
 -2.259999990   -9148992.000
 -2.069999933   -9150738.000
 -1.879999995   -9152489.000
 -1.690000057   -9154247.000
 -1.500000000   -9156005.000
 -1.309999943   -9157757.000
 -1.120000005   -9159502.000
 -0.9300000072   -9161240.000
 -0.7400000095   -9162974.000
 -0.5500000119   -9164707.000
 -0.3600000143   -9166447.000
 -0.1700000018   -9168200.000
 0.1999999955E-01   -9169963.000
 0.2099999934   -9171733.000
 0.4000000060   -9173512.000
 0.5899999738   -9175288.000
 0.7799999714   -9177060.000
 0.9700000286   -9178826.000
 1.159999967   -9180584.000
 1.350000024   -9182337.000
 1.539999962   -9184088.000
 1.730000019   -9185841.000
 1.919999957   -9187594.000
 2.109999895   -9189354.000
 2.299999952   -9191119.000
 2.490000010   -9192889.000
 2.680000067   -9194662.000
 2.869999886   -9196439.000
 3.059999943   -9198216.000
 3.250000000   -9199996.000
 3.440000057   -9201773.000
 3.630000114   -9203550.000
 3.819999933   -9205324.000
 4.010000229   -9207102.000
 4.199999809   -9208880.000
 4.389999866   -9210661.000
 4.579999924   -9212448.000
 4.769999981   -9214237.000
 4.960000038   -9216030.000
 5.150000095   -9217823.000
 5.340000153   -9219614.000
 5.530000210   -9221403.000
 5.719999790   -9223192.000
 5.909999847   -9224979.000
 6.099999905   -9226767.000
 6.289999962   -9228556.000
 6.480000019   -9230350.000
 6.670000076   -9232146.000
 6.860000134   -9233949.000
 7.050000191   -9235750.000
 7.239999771   -9237549.000
 7.429999828   -9239345.000
 7.619999886   -9241127.000
 7.809999943   -9242900.000
 8.000000000   -9244664.000
 8.189999580   -9246423.000
 8.380000114   -9248179.000
 8.569999695   -9249941.000
 8.760000229   -9251708.000
 8.949999809   -9253480.000
 9.140000343   -9255255.000
 9.329999924   -9257029.000
 9.520000458   -9258798.000
 9.710000038   -9260561.000
 9.899999619   -9262319.000
 10.09000015   -9264078.000
 10.27999973   -9265838.000
 10.47000027   -9267606.000
 10.65999985   -9269378.000
 10.85000038   -9271157.000
 11.03999996   -9272937.000
 11.22999954   -9274711.000
 11.42000008   -9276474.000
 11.60999966   -9278226.000
 11.80000019   -9279965.000
 11.98999977   -9281689.000
 12.18000031   -9283400.000
 12.36999989   -9285107.000
 12.56000042   -9286807.000
 12.75000000   -9288509.000
 12.93999958   -9290215.000
 13.13000011   -9291928.000
 13.31999969   -9293648.000
 13.51000023   -9295373.000
 13.69999981   -9297100.000
 13.89000034   -9298827.000
 14.07999992   -9300549.000
 14.27000046   -9302270.000
 14.46000004   -9303989.000
 14.64999962   -9305704.000
 14.84000015   -9307423.000
 15.02999973   -9309146.000
 15.22000027   -9310874.000
 15.40999985   -9312610.000
 15.60000038   -9314350.000
 15.78999996   -9316082.000
 15.97999954   -9317808.000
 16.17000008   -9319523.000
 16.36000061   -9321221.000
 16.54999924   -9322903.000
 16.73999977   -9324575.000
 16.93000031   -9326236.000
 17.12000084   -9327894.000
 17.30999947   -9329551.000
 17.50000000   -9331212.000
 17.69000053   -9332877.000
 17.87999916   -9334544.000
 18.06999969   -9336206.000
 18.26000023   -9337866.000
 18.45000076   -9339523.000
 18.63999939   -9341177.000
 18.82999992   -9342834.000
 19.02000046   -9344494.000
 19.20999908   -9346158.000
 19.39999962   -9347830.000
 19.59000015   -9349506.000
 19.78000069   -9351182.000
 19.96999931   -9352862.000
 20.15999985   -9354533.000
 20.35000038   -9356200.000
 20.54000092   -9357859.000
 20.72999954   -9359515.000
 20.92000008   -9361169.000
 21.11000061   -9362828.000
 21.29999924   -9364489.000
 21.48999977   -9366150.000
 21.68000031   -9367809.000
 21.87000084   -9369466.000
 22.05999947   -9371125.000
 22.25000000   -9372787.000
 22.44000053   -9374454.000
 22.62999916   -9376127.000
 22.81999969   -9377798.000
 23.01000023   -9379468.000
 23.20000076   -9381128.000
 23.38999939   -9382778.000
 23.57999992   -9384419.000
 23.77000046   -9386055.000
 23.95999908   -9387695.000
 24.14999962   -9389345.000
 24.34000015   -9391012.000
 24.53000069   -9392693.000
 24.71999931   -9394383.000
 24.90999985   -9396071.000
 25.10000038   -9397744.000
 25.29000092   -9399399.000
 25.47999954   -9401042.000
 25.67000008   -9402676.000
 25.86000061   -9404313.000
 26.04999924   -9405955.000
 26.23999977   -9407611.000
 26.43000031   -9409274.000
 26.62000084   -9410943.000
 26.80999947   -9412605.000
