 -30.00000000   7424529.000
 -29.80999947   7426045.000
 -29.62000084   7427564.000
 -29.43000031   7429082.000
 -29.23999977   7430601.500
 -29.04999924   7432119.000
 -28.86000061   7433636.000
 -28.67000008   7435148.500
 -28.47999954   7436662.500
 -28.29000092   7438174.500
 -28.10000038   7439686.500
 -27.90999985   7441200.500
 -27.71999931   7442713.000
 -27.53000069   7444227.000
 -27.34000015   7445740.500
 -27.14999962   7447258.000
 -26.95999908   7448769.500
 -26.77000046   7450281.500
 -26.57999992   7451792.000
 -26.38999939   7453300.500
 -26.20000076   7454806.500
 -26.01000023   7456314.000
 -25.81999969   7457818.500
 -25.62999916   7459325.500
 -25.44000053   7460835.000
 -25.25000000   7462345.000
 -25.05999947   7463855.500
 -24.87000084   7465366.500
 -24.68000031   7466874.000
 -24.48999977   7468381.500
 -24.29999924   7469886.500
 -24.11000061   7471391.000
 -23.92000008   7472893.500
 -23.72999954   7474398.000
 -23.54000092   7475899.500
 -23.35000038   7477403.500
 -23.15999985   7478902.500
 -22.96999931   7480402.500
 -22.78000069   7481901.500
 -22.59000015   7483397.000
 -22.39999962   7484894.000
 -22.20999908   7486386.500
 -22.02000046   7487881.000
 -21.82999992   7489372.500
 -21.63999939   7490862.000
 -21.45000076   7492351.500
 -21.26000023   7493838.500
 -21.06999969   7495326.500
 -20.87999916   7496815.000
 -20.69000053   7498307.500
 -20.50000000   7499800.500
 -20.30999947   7501295.000
 -20.12000084   7502791.500
 -19.93000031   7504284.500
 -19.73999977   7505776.000
 -19.54999924   7507261.500
 -19.36000061   7508745.500
 -19.17000008   7510226.000
 -18.97999954   7511708.500
 -18.79000092   7513188.500
 -18.60000038   7514674.000
 -18.40999985   7516157.500
 -18.21999931   7517643.500
 -18.03000069   7519131.000
 -17.84000015   7520613.500
 -17.64999962   7522089.500
 -17.45999908   7523560.000
 -17.27000046   7525027.500
 -17.07999992   7526496.000
 -16.88999939   7527964.500
 -16.70000076   7529436.000
 -16.51000023   7530911.000
 -16.31999969   7532390.000
 -16.12999916   7533868.500
 -15.93999958   7535349.000
 -15.75000000   7536826.000
 -15.56000042   7538300.000
 -15.36999989   7539768.000
 -15.18000031   7541236.500
 -14.98999977   7542703.000
 -14.80000019   7544171.500
 -14.60999966   7545643.000
 -14.42000008   7547117.500
 -14.22999954   7548594.000
 -14.03999996   7550076.000
 -13.85000038   7551555.500
 -13.65999985   7553030.500
 -13.47000027   7554508.000
 -13.27999973   7555981.000
 -13.09000015   7557455.000
 -12.89999962   7558929.000
 -12.71000004   7560411.000
 -12.52000046   7561894.000
 -12.32999992   7563383.000
 -12.14000034   7564874.500
 -11.94999981   7566365.500
 -11.76000023   7567853.000
 -11.56999969   7569335.500
 -11.38000011   7570813.500
 -11.18999958   7572284.500
 -11.00000000   7573754.500
 -10.81000042   7575225.500
 -10.61999989   7576696.500
 -10.43000031   7578172.000
 -10.23999977   7579652.500
 -10.05000019   7581133.500
 -9.859999657   7582611.500
 -9.670000076   7584088.500
 -9.479999542   7585559.500
 -9.289999962   7587024.500
 -9.100000381   7588487.500
 -8.909999847   7589947.000
 -8.720000267   7591406.000
 -8.529999733   7592869.000
 -8.340000153   7594333.000
 -8.149999619   7595799.000
 -7.960000038   7597268.000
 -7.769999981   7598734.500
 -7.579999924   7600201.500
 -7.389999866   7601664.500
 -7.199999809   7603125.500
 -7.010000229   7604583.000
 -6.820000172   7606040.500
 -6.630000114   7607494.500
 -6.440000057   7608949.500
 -6.250000000   7610401.500
 -6.059999943   7611856.500
 -5.869999886   7613311.000
 -5.679999828   7614765.000
 -5.489999771   7616221.500
 -5.300000191   7617673.500
 -5.110000134   7619129.000
 -4.920000076   7620580.000
 -4.730000019   7622029.500
 -4.539999962   7623479.000
 -4.349999905   7624927.500
 -4.159999847   7626379.000
 -3.970000029   7627832.500
 -3.779999971   7629290.000
 -3.589999914   7630752.500
 -3.400000095   7632217.000
 -3.210000038   7633680.500
 -3.019999981   7635141.000
 -2.829999924   7636597.000
 -2.640000105   7638046.000
 -2.450000048   7639491.500
 -2.259999990   7640935.000
 -2.069999933   7642376.500
 -1.879999995   7643820.500
 -1.690000057   7645270.000
 -1.500000000   7646726.000
 -1.309999943   7648184.500
 -1.120000005   7649645.500
 -0.9300000072   7651106.000
 -0.7400000095   7652560.500
 -0.5500000119   7654011.000
 -0.3600000143   7655455.500
 -0.1700000018   7656894.000
 0.1999999955E-01   7658333.500
 0.2099999934   7659774.000
 0.4000000060   7661216.500
 0.5899999738   7662663.000
 0.7799999714   7664110.500
 0.9700000286   7665561.500
 1.159999967   7667008.000
 1.350000024   7668452.500
 1.539999962   7669892.000
 1.730000019   7671321.000
 1.919999957   7672750.000
 2.109999895   7674177.500
 2.299999952   7675604.000
 2.490000010   7677038.000
 2.680000067   7678475.500
 2.869999886   7679916.000
 3.059999943   7681361.500
 3.250000000   7682807.500
 3.440000057   7684249.000
 3.630000114   7685685.500
 3.819999933   7687116.000
 4.010000229   7688542.500
 4.199999809   7689965.000
 4.389999866   7691390.500
 4.579999924   7692818.500
 4.769999981   7694252.000
 4.960000038   7695690.000
 5.150000095   7697132.000
 5.340000153   7698573.500
 5.530000210   7700010.000
 5.719999790   7701444.500
 5.909999847   7702872.500
 6.099999905   7704297.000
 6.289999962   7705717.500
 6.480000019   7707134.500
 6.670000076   7708555.000
 6.860000134   7709978.000
 7.050000191   7711400.500
 7.239999771   7712829.000
 7.429999828   7714258.000
 7.619999886   7715682.500
 7.809999943   7717104.500
 8.000000000   7718521.500
 8.189999580   7719938.000
 8.380000114   7721353.000
 8.569999695   7722767.000
 8.760000229   7724184.000
 8.949999809   7725605.000
 9.140000343   7727029.000
 9.329999924   7728455.500
 9.520000458   7729880.500
 9.710000038   7731306.000
 9.899999619   7732724.500
 10.09000015   7734144.000
 10.27999973   7735561.000
 10.47000027   7736980.500
 10.65999985   7738401.000
 10.85000038   7739818.000
 11.03999996   7741237.000
 11.22999954   7742655.500
 11.42000008   7744073.500
 11.60999966   7745490.500
 11.80000019   7746911.000
 11.98999977   7748327.500
 12.18000031   7749743.000
 12.36999989   7751155.500
 12.56000042   7752560.500
 12.75000000   7753960.500
 12.93999958   7755360.000
 13.13000011   7756757.000
 13.31999969   7758159.500
 13.51000023   7759566.000
 13.69999981   7760976.500
 13.89000034   7762390.500
 14.07999992   7763802.000
 14.27000046   7765208.500
 14.46000004   7766608.000
 14.64999962   7768002.500
 14.84000015   7769396.000
 15.02999973   7770791.500
 15.22000027   7772190.500
 15.40999985   7773596.000
 15.60000038   7775003.500
 15.78999996   7776414.000
 15.97999954   7777819.000
 16.17000008   7779221.000
 16.36000061   7780616.000
 16.54999924   7782006.000
 16.73999977   7783394.000
 16.93000031   7784780.500
 17.12000084   7786173.000
 17.30999947   7787568.500
 17.50000000   7788967.500
 17.69000053   7790369.500
 17.87999916   7791773.500
 18.06999969   7793174.000
 18.26000023   7794572.500
 18.45000076   7795969.500
 18.63999939   7797365.000
 18.82999992   7798761.000
 19.02000046   7800155.000
 19.20999908   7801548.000
 19.39999962   7802939.500
 19.59000015   7804330.000
 19.78000069   7805723.000
 19.96999931   7807114.500
 20.15999985   7808505.500
 20.35000038   7809899.500
 20.54000092   7811294.000
 20.72999954   7812687.500
 20.92000008   7814081.000
 21.11000061   7815472.500
 21.29999924   7816859.500
 21.48999977   7818244.000
 21.68000031   7819627.500
 21.87000084   7821013.500
 22.05999947   7822400.500
 22.25000000   7823790.500
 22.44000053   7825182.500
 22.62999916   7826576.000
 22.81999969   7827967.500
 23.01000023   7829356.000
 23.20000076   7830745.000
 23.38999939   7832128.500
 23.57999992   7833509.500
 23.77000046   7834888.500
 23.95999908   7836266.500
 24.14999962   7837640.000
 24.34000015   7839017.000
 24.53000069   7840389.000
 24.71999931   7841761.000
 24.90999985   7843134.500
 25.10000038   7844506.000
 25.29000092   7845880.500
 25.47999954   7847256.000
 25.67000008   7848630.500
 25.86000061   7850004.500
 26.04999924   7851377.000
 26.23999977   7852747.000
 26.43000031   7854116.500
 26.62000084   7855489.500
 26.80999947   7856860.500
