 -30.00000000   8060872.000
 -29.80999947   8062519.000
 -29.62000084   8064168.000
 -29.43000031   8065819.000
 -29.23999977   8067467.000
 -29.04999924   8069114.500
 -28.86000061   8070759.000
 -28.67000008   8072403.000
 -28.47999954   8074045.000
 -28.29000092   8075688.000
 -28.10000038   8077332.000
 -27.90999985   8078977.000
 -27.71999931   8080624.500
 -27.53000069   8082268.500
 -27.34000015   8083914.500
 -27.14999962   8085559.000
 -26.95999908   8087199.500
 -26.77000046   8088840.000
 -26.57999992   8090479.500
 -26.38999939   8092118.500
 -26.20000076   8093756.000
 -26.01000023   8095396.500
 -25.81999969   8097037.000
 -25.62999916   8098676.000
 -25.44000053   8100317.000
 -25.25000000   8101957.000
 -25.05999947   8103597.500
 -24.87000084   8105236.500
 -24.68000031   8106875.000
 -24.48999977   8108515.000
 -24.29999924   8110153.000
 -24.11000061   8111789.000
 -23.92000008   8113426.000
 -23.72999954   8115061.500
 -23.54000092   8116697.000
 -23.35000038   8118331.000
 -23.15999985   8119961.000
 -22.96999931   8121591.000
 -22.78000069   8123220.000
 -22.59000015   8124846.000
 -22.39999962   8126470.500
 -22.20999908   8128096.000
 -22.02000046   8129721.000
 -21.82999992   8131343.500
 -21.63999939   8132964.000
 -21.45000076   8134581.000
 -21.26000023   8136199.500
 -21.06999969   8137814.000
 -20.87999916   8139432.000
 -20.69000053   8141052.500
 -20.50000000   8142678.000
 -20.30999947   8144305.000
 -20.12000084   8145934.500
 -19.93000031   8147563.500
 -19.73999977   8149188.500
 -19.54999924   8150809.000
 -19.36000061   8152420.500
 -19.17000008   8154030.500
 -18.97999954   8155641.500
 -18.79000092   8157252.500
 -18.60000038   8158866.500
 -18.40999985   8160487.000
 -18.21999931   8162108.500
 -18.03000069   8163728.000
 -17.84000015   8165344.000
 -17.64999962   8166952.500
 -17.45999908   8168553.500
 -17.27000046   8170150.000
 -17.07999992   8171748.000
 -16.88999939   8173345.000
 -16.70000076   8174949.000
 -16.51000023   8176556.000
 -16.31999969   8178164.000
 -16.12999916   8179775.500
 -15.93999958   8181387.500
 -15.75000000   8182996.500
 -15.56000042   8184606.000
 -15.36999989   8186210.000
 -15.18000031   8187817.000
 -14.98999977   8189425.500
 -14.80000019   8191033.500
 -14.60999966   8192644.500
 -14.42000008   8194257.500
 -14.22999954   8195870.500
 -14.03999996   8197484.500
 -13.85000038   8199099.000
 -13.65999985   8200710.000
 -13.47000027   8202318.500
 -13.27999973   8203925.000
 -13.09000015   8205529.000
 -12.89999962   8207133.000
 -12.71000004   8208738.000
 -12.52000046   8210345.500
 -12.32999992   8211954.000
 -12.14000034   8213566.500
 -11.94999981   8215176.500
 -11.76000023   8216786.000
 -11.56999969   8218395.500
 -11.38000011   8220001.000
 -11.18999958   8221602.000
 -11.00000000   8223203.000
 -10.81000042   8224801.000
 -10.61999989   8226401.000
 -10.43000031   8228003.000
 -10.23999977   8229609.000
 -10.05000019   8231218.500
 -9.859999657   8232827.000
 -9.670000076   8234435.500
 -9.479999542   8236040.500
 -9.289999962   8237642.000
 -9.100000381   8239240.000
 -8.909999847   8240833.500
 -8.720000267   8242424.000
 -8.529999733   8244017.000
 -8.340000153   8245610.500
 -8.149999619   8247207.000
 -7.960000038   8248806.000
 -7.769999981   8250407.500
 -7.579999924   8252007.500
 -7.389999866   8253607.000
 -7.199999809   8255203.500
 -7.010000229   8256795.500
 -6.820000172   8258383.000
 -6.630000114   8259970.000
 -6.440000057   8261553.500
 -6.250000000   8263138.500
 -6.059999943   8264726.000
 -5.869999886   8266317.000
 -5.679999828   8267910.500
 -5.489999771   8269505.500
 -5.300000191   8271099.500
 -5.110000134   8272693.000
 -4.920000076   8274280.500
 -4.730000019   8275868.500
 -4.539999962   8277450.500
 -4.349999905   8279034.500
 -4.159999847   8280619.000
 -3.970000029   8282207.000
 -3.779999971   8283798.000
 -3.589999914   8285392.500
 -3.400000095   8286987.000
 -3.210000038   8288577.000
 -3.019999981   8290162.500
 -2.829999924   8291739.500
 -2.640000105   8293316.000
 -2.450000048   8294889.500
 -2.259999990   8296462.500
 -2.069999933   8298037.000
 -1.879999995   8299616.500
 -1.690000057   8301198.500
 -1.500000000   8302787.500
 -1.309999943   8304375.000
 -1.120000005   8305963.000
 -0.9300000072   8307548.000
 -0.7400000095   8309130.500
 -0.5500000119   8310709.000
 -0.3600000143   8312287.000
 -0.1700000018   8313863.000
 0.1999999955E-01   8315442.000
 0.2099999934   8317022.500
 0.4000000060   8318609.000
 0.5899999738   8320195.500
 0.7799999714   8321783.500
 0.9700000286   8323370.000
 1.159999967   8324953.000
 1.350000024   8326532.500
 1.539999962   8328103.500
 1.730000019   8329668.000
 1.919999957   8331228.000
 2.109999895   8332788.500
 2.299999952   8334350.000
 2.490000010   8335917.000
 2.680000067   8337490.000
 2.869999886   8339067.000
 3.059999943   8340647.000
 3.250000000   8342227.500
 3.440000057   8343805.500
 3.630000114   8345379.500
 3.819999933   8346948.500
 4.010000229   8348515.000
 4.199999809   8350079.500
 4.389999866   8351648.000
 4.579999924   8353221.000
 4.769999981   8354795.500
 4.960000038   8356374.500
 5.150000095   8357952.500
 5.340000153   8359527.000
 5.530000210   8361097.000
 5.719999790   8362659.000
 5.909999847   8364214.500
 6.099999905   8365770.000
 6.289999962   8367324.500
 6.480000019   8368880.000
 6.670000076   8370439.000
 6.860000134   8372000.500
 7.050000191   8373564.500
 7.239999771   8375128.000
 7.429999828   8376688.000
 7.619999886   8378244.500
 7.809999943   8379793.000
 8.000000000   8381338.500
 8.189999580   8382883.500
 8.380000114   8384430.500
 8.569999695   8385982.500
 8.760000229   8387542.000
 8.949999809   8389106.000
 9.140000343   8390673.000
 9.329999924   8392243.000
 9.520000458   8393811.000
 9.710000038   8395374.000
 9.899999619   8396934.000
 10.09000015   8398489.000
 10.27999973   8400041.000
 10.47000027   8401595.000
 10.65999985   8403149.000
 10.85000038   8404704.000
 11.03999996   8406259.000
 11.22999954   8407813.000
 11.42000008   8409368.000
 11.60999966   8410918.000
 11.80000019   8412467.000
 11.98999977   8414013.000
 12.18000031   8415555.000
 12.36999989   8417096.000
 12.56000042   8418634.000
 12.75000000   8420171.000
 12.93999958   8421706.000
 13.13000011   8423244.000
 13.31999969   8424785.000
 13.51000023   8426327.000
 13.69999981   8427873.000
 13.89000034   8429418.000
 14.07999992   8430962.000
 14.27000046   8432501.000
 14.46000004   8434037.000
 14.64999962   8435573.000
 14.84000015   8437107.000
 15.02999973   8438641.000
 15.22000027   8440177.000
 15.40999985   8441718.000
 15.60000038   8443256.000
 15.78999996   8444792.000
 15.97999954   8446327.000
 16.17000008   8447862.000
 16.36000061   8449396.000
 16.54999924   8450931.000
 16.73999977   8452468.000
 16.93000031   8454000.000
 17.12000084   8455532.000
 17.30999947   8457062.000
 17.50000000   8458588.000
 17.69000053   8460117.000
 17.87999916   8461642.000
 18.06999969   8463169.000
 18.26000023   8464701.000
 18.45000076   8466233.000
 18.63999939   8467765.000
 18.82999992   8469296.000
 19.02000046   8470821.000
 19.20999908   8472346.000
 19.39999962   8473868.000
 19.59000015   8475393.000
 19.78000069   8476919.000
 19.96999931   8478449.000
 20.15999985   8479977.000
 20.35000038   8481503.000
 20.54000092   8483030.000
 20.72999954   8484551.000
 20.92000008   8486072.000
 21.11000061   8487594.000
 21.29999924   8489116.000
 21.48999977   8490637.000
 21.68000031   8492161.000
 21.87000084   8493684.000
 22.05999947   8495207.000
 22.25000000   8496729.000
 22.44000053   8498250.000
 22.62999916   8499768.000
 22.81999969   8501286.000
 23.01000023   8502803.000
 23.20000076   8504318.000
 23.38999939   8505831.000
 23.57999992   8507344.000
 23.77000046   8508854.000
 23.95999908   8510365.000
 24.14999962   8511881.000
 24.34000015   8513397.000
 24.53000069   8514915.000
 24.71999931   8516433.000
 24.90999985   8517947.000
 25.10000038   8519459.000
 25.29000092   8520966.000
 25.47999954   8522469.000
 25.67000008   8523969.000
 25.86000061   8525474.000
 26.04999924   8526978.000
 26.23999977   8528487.000
 26.43000031   8530000.000
 26.62000084   8531513.000
 26.80999947   8533031.000
