 -30.00000000   1310523.500
 -29.80999947   1310770.750
 -29.62000084   1311012.750
 -29.43000031   1311267.375
 -29.23999977   1311533.750
 -29.04999924   1311803.500
 -28.86000061   1312057.625
 -28.67000008   1312297.000
 -28.47999954   1312533.625
 -28.29000092   1312784.500
 -28.10000038   1313053.000
 -27.90999985   1313325.250
 -27.71999931   1313584.375
 -27.53000069   1313829.000
 -27.34000015   1314065.250
 -27.14999962   1314312.250
 -26.95999908   1314576.125
 -26.77000046   1314848.125
 -26.57999992   1315107.125
 -26.38999939   1315349.875
 -26.20000076   1315584.125
 -26.01000023   1315825.125
 -25.81999969   1316083.000
 -25.62999916   1316353.875
 -25.44000053   1316616.000
 -25.25000000   1316860.500
 -25.05999947   1317092.125
 -24.87000084   1317333.750
 -24.68000031   1317594.500
 -24.48999977   1317866.250
 -24.29999924   1318135.750
 -24.11000061   1318386.375
 -23.92000008   1318624.625
 -23.72999954   1318867.625
 -23.54000092   1319131.625
 -23.35000038   1319410.625
 -23.15999985   1319687.750
 -22.96999931   1319947.750
 -22.78000069   1320191.875
 -22.59000015   1320434.875
 -22.39999962   1320695.625
 -22.20999908   1320971.125
 -22.02000046   1321249.250
 -21.82999992   1321510.250
 -21.63999939   1321753.125
 -21.45000076   1321997.000
 -21.26000023   1322258.125
 -21.06999969   1322536.000
 -20.87999916   1322814.125
 -20.69000053   1323074.375
 -20.50000000   1323315.500
 -20.30999947   1323553.875
 -20.12000084   1323802.625
 -19.93000031   1324066.750
 -19.73999977   1324337.500
 -19.54999924   1324594.250
 -19.36000061   1324832.250
 -19.17000008   1325064.625
 -18.97999954   1325310.750
 -18.79000092   1325574.875
 -18.60000038   1325848.000
 -18.40999985   1326116.750
 -18.21999931   1326368.500
 -18.03000069   1326616.250
 -17.84000015   1326876.625
 -17.64999962   1327157.500
 -17.45999908   1327450.750
 -17.27000046   1327740.375
 -17.07999992   1328014.375
 -16.88999939   1328275.875
 -16.70000076   1328544.625
 -16.51000023   1328834.000
 -16.31999969   1329139.250
 -16.12999916   1329444.625
 -15.93999958   1329733.875
 -15.75000000   1330014.625
 -15.56000042   1330296.375
 -15.36999989   1330594.000
 -15.18000031   1330906.000
 -14.98999977   1331214.875
 -14.80000019   1331507.750
 -14.60999966   1331784.750
 -14.42000008   1332060.500
 -14.22999954   1332352.875
 -14.03999996   1332662.000
 -13.85000038   1332970.875
 -13.65999985   1333263.250
 -13.47000027   1333536.125
 -13.27999973   1333804.250
 -13.09000015   1334086.500
 -12.89999962   1334380.875
 -12.71000004   1334676.500
 -12.52000046   1334958.000
 -12.32999992   1335217.750
 -12.14000034   1335474.250
 -11.94999981   1335741.875
 -11.76000023   1336025.125
 -11.56999969   1336310.375
 -11.38000011   1336581.875
 -11.18999958   1336835.125
 -11.00000000   1337077.625
 -10.81000042   1337329.125
 -10.61999989   1337599.250
 -10.43000031   1337875.750
 -10.23999977   1338139.625
 -10.05000019   1338390.625
 -9.859999657   1338632.750
 -9.670000076   1338883.125
 -9.479999542   1339155.000
 -9.289999962   1339436.125
 -9.100000381   1339712.500
 -8.909999847   1339971.625
 -8.720000267   1340220.000
 -8.529999733   1340472.625
 -8.340000153   1340743.000
 -8.149999619   1341023.500
 -7.960000038   1341294.750
 -7.769999981   1341549.625
 -7.579999924   1341789.625
 -7.389999866   1342032.500
 -7.199999809   1342292.875
 -7.010000229   1342570.250
 -6.820000172   1342846.625
 -6.630000114   1343111.125
 -6.440000057   1343366.875
 -6.250000000   1343623.500
 -6.059999943   1343899.500
 -5.869999886   1344188.375
 -5.679999828   1344480.375
 -5.489999771   1344758.500
 -5.300000191   1345022.000
 -5.110000134   1345285.375
 -4.920000076   1345558.500
 -4.730000019   1345847.250
 -4.539999962   1346138.125
 -4.349999905   1346412.125
 -4.159999847   1346673.750
 -3.970000029   1346929.625
 -3.779999971   1347195.750
 -3.589999914   1347477.500
 -3.400000095   1347760.500
 -3.210000038   1348034.000
 -3.019999981   1348288.625
 -2.829999924   1348541.250
 -2.640000105   1348802.125
 -2.450000048   1349079.000
 -2.259999990   1349364.875
 -2.069999933   1349643.000
 -1.879999995   1349906.500
 -1.690000057   1350164.250
 -1.500000000   1350426.875
 -1.309999943   1350703.750
 -1.120000005   1350990.625
 -0.9300000072   1351272.625
 -0.7400000095   1351541.500
 -0.5500000119   1351804.250
 -0.3600000143   1352070.875
 -0.1700000018   1352354.125
 0.1999999955E-01   1352647.250
 0.2099999934   1352938.875
 0.4000000060   1353215.875
 0.5899999738   1353482.125
 0.7799999714   1353749.875
 0.9700000286   1354030.250
 1.159999967   1354322.125
 1.350000024   1354611.500
 1.539999962   1354887.875
 1.730000019   1355151.375
 1.919999957   1355409.875
 2.109999895   1355677.625
 2.299999952   1355957.875
 2.490000010   1356241.000
 2.680000067   1356511.875
 2.869999886   1356774.750
 3.059999943   1357035.000
 3.250000000   1357304.625
 3.440000057   1357585.250
 3.630000114   1357870.625
 3.819999933   1358147.750
 4.010000229   1358411.625
 4.199999809   1358670.250
 4.389999866   1358937.375
 4.579999924   1359213.500
 4.769999981   1359493.625
 4.960000038   1359766.875
 5.150000095   1360031.125
 5.340000153   1360288.000
 5.530000210   1360550.000
 5.719999790   1360818.750
 5.909999847   1361093.500
 6.099999905   1361367.125
 6.289999962   1361629.875
 6.480000019   1361885.250
 6.670000076   1362144.875
 6.860000134   1362408.000
 7.050000191   1362680.500
 7.239999771   1362955.000
 7.429999828   1363223.125
 7.619999886   1363489.000
 7.809999943   1363756.125
 8.000000000   1364028.500
 8.189999580   1364310.000
 8.380000114   1364591.750
 8.569999695   1364870.125
 8.760000229   1365140.750
 8.949999809   1365407.750
 9.140000343   1365675.625
 9.329999924   1365952.625
 9.520000458   1366231.000
 9.710000038   1366505.750
 9.899999619   1366775.000
 10.09000015   1367037.250
 10.27999973   1367303.375
 10.47000027   1367576.875
 10.65999985   1367862.500
 10.85000038   1368152.625
 11.03999996   1368436.750
 11.22999954   1368713.500
 11.42000008   1368989.625
 11.60999966   1369271.875
 11.80000019   1369559.750
 11.98999977   1369853.000
 12.18000031   1370134.250
 12.36999989   1370408.625
 12.56000042   1370677.875
 12.75000000   1370957.375
 12.93999958   1371245.000
 13.13000011   1371533.750
 13.31999969   1371811.500
 13.51000023   1372075.000
 13.69999981   1372333.250
 13.89000034   1372599.125
 14.07999992   1372876.000
 14.27000046   1373157.625
 14.46000004   1373434.625
 14.64999962   1373696.375
 14.84000015   1373953.750
 15.02999973   1374215.750
 15.22000027   1374489.500
 15.40999985   1374771.875
 15.60000038   1375046.125
 15.78999996   1375309.000
 15.97999954   1375564.250
 16.17000008   1375829.000
 16.36000061   1376105.750
 16.54999924   1376394.875
 16.73999977   1376680.625
 16.93000031   1376953.375
 17.12000084   1377214.375
 17.30999947   1377482.000
 17.50000000   1377761.625
 17.69000053   1378050.375
 17.87999916   1378333.375
 18.06999969   1378601.375
 18.26000023   1378858.875
 18.45000076   1379121.375
 18.63999939   1379396.250
 18.82999992   1379683.125
 19.02000046   1379966.000
 19.20999908   1380233.125
 19.39999962   1380492.875
 19.59000015   1380758.000
 19.78000069   1381040.250
 19.96999931   1381337.000
 20.15999985   1381628.750
 20.35000038   1381905.375
 20.54000092   1382170.375
 20.72999954   1382437.125
 20.92000008   1382718.125
 21.11000061   1383015.375
 21.29999924   1383306.875
 21.48999977   1383584.875
 21.68000031   1383846.375
 21.87000084   1384107.625
 22.05999947   1384381.875
 22.25000000   1384673.625
 22.44000053   1384960.500
 22.62999916   1385231.500
 22.81999969   1385486.500
 23.01000023   1385740.375
 23.20000076   1386005.750
 23.38999939   1386287.375
 23.57999992   1386573.000
 23.77000046   1386846.875
 23.95999908   1387104.750
 24.14999962   1387358.375
 24.34000015   1387629.250
 24.53000069   1387913.375
 24.71999931   1388201.375
 24.90999985   1388477.000
 25.10000038   1388732.125
 25.29000092   1388983.500
 25.47999954   1389248.000
 25.67000008   1389533.500
 25.86000061   1389827.125
 26.04999924   1390115.500
 26.23999977   1390389.375
 26.43000031   1390655.000
 26.62000084   1390930.000
 26.80999947   1391222.375
