 -30.00000000   5220593.500
 -29.80999947   5221677.000
 -29.62000084   5222774.000
 -29.43000031   5223877.000
 -29.23999977   5224980.500
 -29.04999924   5226079.000
 -28.86000061   5227169.500
 -28.67000008   5228250.000
 -28.47999954   5229327.000
 -28.29000092   5230404.000
 -28.10000038   5231484.500
 -27.90999985   5232577.500
 -27.71999931   5233682.000
 -27.53000069   5234797.500
 -27.34000015   5235918.500
 -27.14999962   5237038.500
 -26.95999908   5238149.500
 -26.77000046   5239248.000
 -26.57999992   5240333.000
 -26.38999939   5241404.500
 -26.20000076   5242470.500
 -26.01000023   5243536.000
 -25.81999969   5244610.500
 -25.62999916   5245697.500
 -25.44000053   5246797.500
 -25.25000000   5247908.000
 -25.05999947   5249023.500
 -24.87000084   5250137.500
 -24.68000031   5251242.500
 -24.48999977   5252335.000
 -24.29999924   5253413.500
 -24.11000061   5254482.500
 -23.92000008   5255551.500
 -23.72999954   5256626.500
 -23.54000092   5257712.500
 -23.35000038   5258811.000
 -23.15999985   5259923.000
 -22.96999931   5261042.000
 -22.78000069   5262159.000
 -22.59000015   5263269.500
 -22.39999962   5264366.500
 -22.20999908   5265449.000
 -22.02000046   5266519.500
 -21.82999992   5267584.000
 -21.63999939   5268649.500
 -21.45000076   5269722.000
 -21.26000023   5270806.000
 -21.06999969   5271900.500
 -20.87999916   5273000.500
 -20.69000053   5274103.000
 -20.50000000   5275200.000
 -20.30999947   5276287.000
 -20.12000084   5277360.500
 -19.93000031   5278422.500
 -19.73999977   5279473.500
 -19.54999924   5280521.000
 -19.36000061   5281573.000
 -19.17000008   5282633.500
 -18.97999954   5283707.000
 -18.79000092   5284790.000
 -18.60000038   5285878.500
 -18.40999985   5286967.000
 -18.21999931   5288046.500
 -18.03000069   5289112.500
 -17.84000015   5290163.500
 -17.64999962   5291202.500
 -17.45999908   5292236.000
 -17.27000046   5293270.500
 -17.07999992   5294316.000
 -16.88999939   5295372.500
 -16.70000076   5296444.000
 -16.51000023   5297521.500
 -16.31999969   5298601.000
 -16.12999916   5299672.500
 -15.93999958   5300731.500
 -15.75000000   5301775.500
 -15.56000042   5302802.500
 -15.36999989   5303819.000
 -15.18000031   5304835.000
 -14.98999977   5305855.500
 -14.80000019   5306888.500
 -14.60999966   5307931.500
 -14.42000008   5308986.000
 -14.22999954   5310044.000
 -14.03999996   5311099.000
 -13.85000038   5312143.000
 -13.65999985   5313173.000
 -13.47000027   5314188.000
 -13.27999973   5315198.500
 -13.09000015   5316206.000
 -12.89999962   5317219.500
 -12.71000004   5318246.000
 -12.52000046   5319291.000
 -12.32999992   5320348.000
 -12.14000034   5321415.000
 -11.94999981   5322483.500
 -11.76000023   5323547.500
 -11.56999969   5324599.000
 -11.38000011   5325638.500
 -11.18999958   5326666.000
 -11.00000000   5327683.500
 -10.81000042   5328698.500
 -10.61999989   5329716.000
 -10.43000031   5330742.500
 -10.23999977   5331777.000
 -10.05000019   5332819.500
 -9.859999657   5333864.000
 -9.670000076   5334905.000
 -9.479999542   5335937.000
 -9.289999962   5336953.500
 -9.100000381   5337956.500
 -8.909999847   5338948.500
 -8.720000267   5339935.000
 -8.529999733   5340927.000
 -8.340000153   5341932.000
 -8.149999619   5342957.000
 -7.960000038   5343999.500
 -7.769999981   5345057.500
 -7.579999924   5346121.000
 -7.389999866   5347181.000
 -7.199999809   5348229.000
 -7.010000229   5349260.500
 -6.820000172   5350277.500
 -6.630000114   5351284.000
 -6.440000057   5352292.000
 -6.250000000   5353307.500
 -6.059999943   5354336.000
 -5.869999886   5355382.500
 -5.679999828   5356441.000
 -5.489999771   5357502.500
 -5.300000191   5358558.500
 -5.110000134   5359601.500
 -4.920000076   5360625.500
 -4.730000019   5361632.500
 -4.539999962   5362624.500
 -4.349999905   5363611.500
 -4.159999847   5364599.000
 -3.970000029   5365595.500
 -3.779999971   5366606.000
 -3.589999914   5367629.000
 -3.400000095   5368662.000
 -3.210000038   5369699.000
 -3.019999981   5370733.500
 -2.829999924   5371759.500
 -2.640000105   5372772.500
 -2.450000048   5373775.000
 -2.259999990   5374767.000
 -2.069999933   5375754.500
 -1.879999995   5376746.000
 -1.690000057   5377746.500
 -1.500000000   5378761.500
 -1.309999943   5379791.000
 -1.120000005   5380827.000
 -0.9300000072   5381868.000
 -0.7400000095   5382900.000
 -0.5500000119   5383919.500
 -0.3600000143   5384920.500
 -0.1700000018   5385906.000
 0.1999999955E-01   5386881.500
 0.2099999934   5387854.000
 0.4000000060   5388836.000
 0.5899999738   5389832.000
 0.7799999714   5390846.000
 0.9700000286   5391871.500
 1.159999967   5392903.000
 1.350000024   5393929.500
 1.539999962   5394940.000
 1.730000019   5395930.000
 1.919999957   5396904.000
 2.109999895   5397863.500
 2.299999952   5398822.500
 2.490000010   5399789.500
 2.680000067   5400770.500
 2.869999886   5401768.500
 3.059999943   5402781.500
 3.250000000   5403802.500
 3.440000057   5404820.500
 3.630000114   5405826.000
 3.819999933   5406816.000
 4.010000229   5407789.500
 4.199999809   5408750.000
 4.389999866   5409705.500
 4.579999924   5410667.000
 4.769999981   5411640.000
 4.960000038   5412631.000
 5.150000095   5413638.500
 5.340000153   5414659.500
 5.530000210   5415684.500
 5.719999790   5416706.000
 5.909999847   5417716.500
 6.099999905   5418711.000
 6.289999962   5419689.000
 6.480000019   5420656.500
 6.670000076   5421622.000
 6.860000134   5422596.500
 7.050000191   5423582.500
 7.239999771   5424586.000
 7.429999828   5425601.500
 7.619999886   5426619.000
 7.809999943   5427632.000
 8.000000000   5428631.000
 8.189999580   5429612.500
 8.380000114   5430575.500
 8.569999695   5431530.000
 8.760000229   5432486.500
 8.949999809   5433452.500
 9.140000343   5434436.000
 9.329999924   5435437.500
 9.520000458   5436454.500
 9.710000038   5437478.500
 9.899999619   5438502.000
 10.09000015   5439519.000
 10.27999973   5440525.000
 10.47000027   5441519.000
 10.65999985   5442504.500
 10.85000038   5443488.000
 11.03999996   5444475.000
 11.22999954   5445470.500
 11.42000008   5446479.500
 11.60999966   5447499.500
 11.80000019   5448526.500
 11.98999977   5449557.000
 12.18000031   5450583.500
 12.36999989   5451596.500
 12.56000042   5452592.500
 12.75000000   5453571.000
 12.93999958   5454536.000
 13.13000011   5455494.500
 13.31999969   5456453.500
 13.51000023   5457423.000
 13.69999981   5458405.500
 13.89000034   5459400.500
 14.07999992   5460403.000
 14.27000046   5461407.000
 14.46000004   5462400.000
 14.64999962   5463377.000
 14.84000015   5464336.500
 15.02999973   5465279.000
 15.22000027   5466212.500
 15.40999985   5467145.500
 15.60000038   5468090.000
 15.78999996   5469052.000
 15.97999954   5470029.000
 16.17000008   5471020.000
 16.36000061   5472020.500
 16.54999924   5473020.500
 16.73999977   5474015.500
 16.93000031   5475000.500
 17.12000084   5475977.500
 17.30999947   5476949.000
 17.50000000   5477920.500
 17.69000053   5478899.000
 17.87999916   5479891.500
 18.06999969   5480900.500
 18.26000023   5481923.500
 18.45000076   5482959.000
 18.63999939   5483996.500
 18.82999992   5485029.000
 19.02000046   5486048.000
 19.20999908   5487049.000
 19.39999962   5488032.000
 19.59000015   5489003.500
 19.78000069   5489972.000
 19.96999931   5490946.500
 20.15999985   5491932.500
 20.35000038   5492928.500
 20.54000092   5493931.000
 20.72999954   5494932.000
 20.92000008   5495920.500
 21.11000061   5496896.000
 21.29999924   5497856.500
 21.48999977   5498805.000
 21.68000031   5499753.500
 21.87000084   5500707.000
 22.05999947   5501673.500
 22.25000000   5502652.500
 22.44000053   5503643.500
 22.62999916   5504641.500
 22.81999969   5505638.000
 23.01000023   5506631.000
 23.20000076   5507617.000
 23.38999939   5508593.500
 23.57999992   5509563.000
 23.77000046   5510525.000
 23.95999908   5511483.000
 24.14999962   5512440.000
 24.34000015   5513401.000
 24.53000069   5514367.000
 24.71999931   5515343.000
 24.90999985   5516327.000
 25.10000038   5517315.500
 25.29000092   5518302.500
 25.47999954   5519280.500
 25.67000008   5520242.500
 25.86000061   5521187.500
 26.04999924   5522116.000
 26.23999977   5523032.500
 26.43000031   5523950.000
 26.62000084   5524874.500
 26.80999947   5525812.000
