 -30.00000000   -3092081.000
 -29.80999947   -3092717.000
 -29.62000084   -3093355.500
 -29.43000031   -3093995.000
 -29.23999977   -3094632.000
 -29.04999924   -3095267.500
 -28.86000061   -3095899.500
 -28.67000008   -3096530.250
 -28.47999954   -3097157.750
 -28.29000092   -3097787.750
 -28.10000038   -3098417.250
 -27.90999985   -3099046.750
 -27.71999931   -3099678.000
 -27.53000069   -3100307.250
 -27.34000015   -3100934.000
 -27.14999962   -3101559.750
 -26.95999908   -3102182.000
 -26.77000046   -3102807.250
 -26.57999992   -3103432.500
 -26.38999939   -3104058.500
 -26.20000076   -3104689.750
 -26.01000023   -3105321.500
 -25.81999969   -3105955.000
 -25.62999916   -3106585.750
 -25.44000053   -3107216.250
 -25.25000000   -3107844.750
 -25.05999947   -3108473.500
 -24.87000084   -3109102.500
 -24.68000031   -3109731.500
 -24.48999977   -3110361.250
 -24.29999924   -3110992.000
 -24.11000061   -3111622.250
 -23.92000008   -3112252.500
 -23.72999954   -3112881.500
 -23.54000092   -3113507.750
 -23.35000038   -3114134.750
 -23.15999985   -3114761.250
 -22.96999931   -3115388.750
 -22.78000069   -3116018.250
 -22.59000015   -3116650.750
 -22.39999962   -3117283.750
 -22.20999908   -3117916.750
 -22.02000046   -3118548.500
 -21.82999992   -3119178.250
 -21.63999939   -3119805.750
 -21.45000076   -3120431.250
 -21.26000023   -3121055.750
 -21.06999969   -3121679.250
 -20.87999916   -3122304.250
 -20.69000053   -3122931.500
 -20.50000000   -3123559.750
 -20.30999947   -3124189.750
 -20.12000084   -3124821.250
 -19.93000031   -3125451.250
 -19.73999977   -3126079.000
 -19.54999924   -3126703.250
 -19.36000061   -3127327.000
 -19.17000008   -3127949.000
 -18.97999954   -3128572.000
 -18.79000092   -3129195.000
 -18.60000038   -3129820.500
 -18.40999985   -3130449.250
 -18.21999931   -3131082.000
 -18.03000069   -3131713.750
 -17.84000015   -3132344.750
 -17.64999962   -3132973.000
 -17.45999908   -3133598.500
 -17.27000046   -3134219.250
 -17.07999992   -3134839.000
 -16.88999939   -3135458.250
 -16.70000076   -3136079.750
 -16.51000023   -3136702.500
 -16.31999969   -3137330.000
 -16.12999916   -3137957.250
 -15.93999958   -3138582.250
 -15.75000000   -3139206.750
 -15.56000042   -3139827.000
 -15.36999989   -3140440.250
 -15.18000031   -3141055.000
 -14.98999977   -3141666.750
 -14.80000019   -3142280.750
 -14.60999966   -3142898.250
 -14.42000008   -3143519.250
 -14.22999954   -3144142.000
 -14.03999996   -3144767.500
 -13.85000038   -3145391.000
 -13.65999985   -3146010.750
 -13.47000027   -3146626.750
 -13.27999973   -3147241.750
 -13.09000015   -3147852.750
 -12.89999962   -3148464.500
 -12.71000004   -3149078.500
 -12.52000046   -3149695.500
 -12.32999992   -3150317.000
 -12.14000034   -3150939.000
 -11.94999981   -3151561.500
 -11.76000023   -3152185.000
 -11.56999969   -3152805.500
 -11.38000011   -3153422.250
 -11.18999958   -3154035.500
 -11.00000000   -3154645.750
 -10.81000042   -3155252.750
 -10.61999989   -3155859.250
 -10.43000031   -3156467.250
 -10.23999977   -3157075.500
 -10.05000019   -3157687.750
 -9.859999657   -3158298.750
 -9.670000076   -3158912.750
 -9.479999542   -3159525.250
 -9.289999962   -3160139.000
 -9.100000381   -3160752.750
 -8.909999847   -3161366.000
 -8.720000267   -3161975.750
 -8.529999733   -3162585.750
 -8.340000153   -3163193.750
 -8.149999619   -3163803.750
 -7.960000038   -3164414.000
 -7.769999981   -3165027.000
 -7.579999924   -3165643.250
 -7.389999866   -3166258.750
 -7.199999809   -3166875.000
 -7.010000229   -3167491.750
 -6.820000172   -3168107.500
 -6.630000114   -3168722.750
 -6.440000057   -3169336.250
 -6.250000000   -3169949.750
 -6.059999943   -3170563.000
 -5.869999886   -3171179.000
 -5.679999828   -3171796.000
 -5.489999771   -3172413.750
 -5.300000191   -3173031.750
 -5.110000134   -3173648.500
 -4.920000076   -3174262.000
 -4.730000019   -3174871.750
 -4.539999962   -3175477.250
 -4.349999905   -3176078.000
 -4.159999847   -3176674.750
 -3.970000029   -3177268.750
 -3.779999971   -3177861.750
 -3.589999914   -3178457.250
 -3.400000095   -3179056.500
 -3.210000038   -3179660.250
 -3.019999981   -3180265.250
 -2.829999924   -3180874.500
 -2.640000105   -3181486.750
 -2.450000048   -3182098.500
 -2.259999990   -3182709.500
 -2.069999933   -3183315.750
 -1.879999995   -3183918.500
 -1.690000057   -3184520.750
 -1.500000000   -3185120.250
 -1.309999943   -3185721.000
 -1.120000005   -3186327.500
 -0.9300000072   -3186934.750
 -0.7400000095   -3187545.000
 -0.5500000119   -3188154.750
 -0.3600000143   -3188762.250
 -0.1700000018   -3189366.250
 0.1999999955E-01   -3189963.500
 0.2099999934   -3190556.750
 0.4000000060   -3191145.500
 0.5899999738   -3191735.000
 0.7799999714   -3192328.250
 0.9700000286   -3192925.000
 1.159999967   -3193524.000
 1.350000024   -3194125.500
 1.539999962   -3194724.250
 1.730000019   -3195319.000
 1.919999957   -3195908.750
 2.109999895   -3196495.750
 2.299999952   -3197081.000
 2.490000010   -3197669.500
 2.680000067   -3198261.500
 2.869999886   -3198859.000
 3.059999943   -3199463.000
 3.250000000   -3200069.500
 3.440000057   -3200678.250
 3.630000114   -3201283.250
 3.819999933   -3201884.750
 4.010000229   -3202481.250
 4.199999809   -3203072.500
 4.389999866   -3203662.250
 4.579999924   -3204252.000
 4.769999981   -3204839.500
 4.960000038   -3205430.000
 5.150000095   -3206024.250
 5.340000153   -3206624.250
 5.530000210   -3207224.500
 5.719999790   -3207827.250
 5.909999847   -3208431.000
 6.099999905   -3209030.750
 6.289999962   -3209627.250
 6.480000019   -3210216.500
 6.670000076   -3210803.000
 6.860000134   -3211385.750
 7.050000191   -3211969.750
 7.239999771   -3212556.250
 7.429999828   -3213148.500
 7.619999886   -3213747.000
 7.809999943   -3214348.250
 8.000000000   -3214949.000
 8.189999580   -3215547.500
 8.380000114   -3216139.750
 8.569999695   -3216730.000
 8.760000229   -3217316.250
 8.949999809   -3217903.750
 9.140000343   -3218495.750
 9.329999924   -3219090.750
 9.520000458   -3219690.500
 9.710000038   -3220288.750
 9.899999619   -3220886.500
 10.09000015   -3221480.750
 10.27999973   -3222066.000
 10.47000027   -3222649.000
 10.65999985   -3223227.250
 10.85000038   -3223804.000
 11.03999996   -3224380.500
 11.22999954   -3224959.750
 11.42000008   -3225541.500
 11.60999966   -3226125.750
 11.80000019   -3226713.750
 11.98999977   -3227303.000
 12.18000031   -3227892.750
 12.36999989   -3228484.000
 12.56000042   -3229073.000
 12.75000000   -3229659.250
 12.93999958   -3230242.250
 13.13000011   -3230819.750
 13.31999969   -3231395.500
 13.51000023   -3231969.250
 13.69999981   -3232547.000
 13.89000034   -3233130.500
 14.07999992   -3233720.750
 14.27000046   -3234313.000
 14.46000004   -3234905.750
 14.64999962   -3235492.500
 14.84000015   -3236073.250
 15.02999973   -3236647.000
 15.22000027   -3237211.000
 15.40999985   -3237773.750
 15.60000038   -3238335.000
 15.78999996   -3238901.500
 15.97999954   -3239474.250
 16.17000008   -3240053.250
 16.36000061   -3240635.750
 16.54999924   -3241219.500
 16.73999977   -3241803.000
 16.93000031   -3242380.250
 17.12000084   -3242954.750
 17.30999947   -3243526.750
 17.50000000   -3244099.000
 17.69000053   -3244672.750
 17.87999916   -3245250.500
 18.06999969   -3245832.500
 18.26000023   -3246418.750
 18.45000076   -3247009.750
 18.63999939   -3247599.000
 18.82999992   -3248185.500
 19.02000046   -3248767.500
 19.20999908   -3249344.250
 19.39999962   -3249918.250
 19.59000015   -3250490.500
 19.78000069   -3251064.500
 19.96999931   -3251641.750
 20.15999985   -3252222.000
 20.35000038   -3252805.750
 20.54000092   -3253391.000
 20.72999954   -3253975.750
 20.92000008   -3254556.750
 21.11000061   -3255134.000
 21.29999924   -3255709.250
 21.48999977   -3256286.000
 21.68000031   -3256862.750
 21.87000084   -3257441.500
 22.05999947   -3258021.500
 22.25000000   -3258600.250
 22.44000053   -3259175.750
 22.62999916   -3259745.500
 22.81999969   -3260311.750
 23.01000023   -3260877.500
 23.20000076   -3261441.000
 23.38999939   -3262007.500
 23.57999992   -3262578.250
 23.77000046   -3263153.750
 23.95999908   -3263732.750
 24.14999962   -3264317.500
 24.34000015   -3264904.750
 24.53000069   -3265491.000
 24.71999931   -3266077.000
 24.90999985   -3266661.750
 25.10000038   -3267243.750
 25.29000092   -3267824.000
 25.47999954   -3268402.750
 25.67000008   -3268979.000
 25.86000061   -3269552.250
 26.04999924   -3270119.750
 26.23999977   -3270684.750
 26.43000031   -3271244.500
 26.62000084   -3271801.000
 26.80999947   -3272357.000
