 -30.00000000   9219712.000
 -29.80999947   9221585.000
 -29.62000084   9223455.000
 -29.43000031   9225329.000
 -29.23999977   9227211.000
 -29.04999924   9229092.000
 -28.86000061   9230965.000
 -28.67000008   9232831.000
 -28.47999954   9234697.000
 -28.29000092   9236571.000
 -28.10000038   9238455.000
 -27.90999985   9240340.000
 -27.71999931   9242221.000
 -27.53000069   9244089.000
 -27.34000015   9245955.000
 -27.14999962   9247829.000
 -26.95999908   9249709.000
 -26.77000046   9251593.000
 -26.57999992   9253471.000
 -26.38999939   9255339.000
 -26.20000076   9257204.000
 -26.01000023   9259075.000
 -25.81999969   9260957.000
 -25.62999916   9262842.000
 -25.44000053   9264724.000
 -25.25000000   9266596.000
 -25.05999947   9268467.000
 -24.87000084   9270341.000
 -24.68000031   9272226.000
 -24.48999977   9274115.000
 -24.29999924   9276000.000
 -24.11000061   9277877.000
 -23.92000008   9279750.000
 -23.72999954   9281627.000
 -23.54000092   9283514.000
 -23.35000038   9285407.000
 -23.15999985   9287298.000
 -22.96999931   9289181.000
 -22.78000069   9291056.000
 -22.59000015   9292932.000
 -22.39999962   9294817.000
 -22.20999908   9296707.000
 -22.02000046   9298596.000
 -21.82999992   9300480.000
 -21.63999939   9302354.000
 -21.45000076   9304233.000
 -21.26000023   9306120.000
 -21.06999969   9308013.000
 -20.87999916   9309906.000
 -20.69000053   9311792.000
 -20.50000000   9313667.000
 -20.30999947   9315538.000
 -20.12000084   9317417.000
 -19.93000031   9319301.000
 -19.73999977   9321186.000
 -19.54999924   9323062.000
 -19.36000061   9324930.000
 -19.17000008   9326798.000
 -18.97999954   9328674.000
 -18.79000092   9330560.000
 -18.60000038   9332450.000
 -18.40999985   9334336.000
 -18.21999931   9336217.000
 -18.03000069   9338097.000
 -17.84000015   9339981.000
 -17.64999962   9341873.000
 -17.45999908   9343764.000
 -17.27000046   9345651.000
 -17.07999992   9347525.000
 -16.88999939   9349392.000
 -16.70000076   9351262.000
 -16.51000023   9353142.000
 -16.31999969   9355023.000
 -16.12999916   9356901.000
 -15.93999958   9358770.000
 -15.75000000   9360636.000
 -15.56000042   9362506.000
 -15.36999989   9364380.000
 -15.18000031   9366261.000
 -14.98999977   9368138.000
 -14.80000019   9370010.000
 -14.60999966   9371880.000
 -14.42000008   9373756.000
 -14.22999954   9375642.000
 -14.03999996   9377536.000
 -13.85000038   9379430.000
 -13.65999985   9381317.000
 -13.47000027   9383201.000
 -13.27999973   9385086.000
 -13.09000015   9386975.000
 -12.89999962   9388869.000
 -12.71000004   9390764.000
 -12.52000046   9392651.000
 -12.32999992   9394534.000
 -12.14000034   9396420.000
 -11.94999981   9398314.000
 -11.76000023   9400214.000
 -11.56999969   9402115.000
 -11.38000011   9404010.000
 -11.18999958   9405899.000
 -11.00000000   9407787.000
 -10.81000042   9409673.000
 -10.61999989   9411564.000
 -10.43000031   9413454.000
 -10.23999977   9415337.000
 -10.05000019   9417214.000
 -9.859999657   9419091.000
 -9.670000076   9420970.000
 -9.479999542   9422855.000
 -9.289999962   9424743.000
 -9.100000381   9426635.000
 -8.909999847   9428525.000
 -8.720000267   9430414.000
 -8.529999733   9432309.000
 -8.340000153   9434209.000
 -8.149999619   9436115.000
 -7.960000038   9438023.000
 -7.769999981   9439927.000
 -7.579999924   9441826.000
 -7.389999866   9443723.000
 -7.199999809   9445619.000
 -7.010000229   9447520.000
 -6.820000172   9449420.000
 -6.630000114   9451319.000
 -6.440000057   9453214.000
 -6.250000000   9455105.000
 -6.059999943   9456997.000
 -5.869999886   9458893.000
 -5.679999828   9460796.000
 -5.489999771   9462700.000
 -5.300000191   9464599.000
 -5.110000134   9466495.000
 -4.920000076   9468390.000
 -4.730000019   9470284.000
 -4.539999962   9472185.000
 -4.349999905   9474082.000
 -4.159999847   9475974.000
 -3.970000029   9477859.000
 -3.779999971   9479741.000
 -3.589999914   9481628.000
 -3.400000095   9483518.000
 -3.210000038   9485413.000
 -3.019999981   9487305.000
 -2.829999924   9489192.000
 -2.640000105   9491075.000
 -2.450000048   9492962.000
 -2.259999990   9494860.000
 -2.069999933   9496764.000
 -1.879999995   9498668.000
 -1.690000057   9500569.000
 -1.500000000   9502468.000
 -1.309999943   9504374.000
 -1.120000005   9506288.000
 -0.9300000072   9508205.000
 -0.7400000095   9510114.000
 -0.5500000119   9512011.000
 -0.3600000143   9513901.000
 -0.1700000018   9515795.000
 0.1999999955E-01   9517697.000
 0.2099999934   9519604.000
 0.4000000060   9521505.000
 0.5899999738   9523398.000
 0.7799999714   9525288.000
 0.9700000286   9527185.000
 1.159999967   9529096.000
 1.350000024   9531013.000
 1.539999962   9532923.000
 1.730000019   9534824.000
 1.919999957   9536720.000
 2.109999895   9538621.000
 2.299999952   9540533.000
 2.490000010   9542447.000
 2.680000067   9544355.000
 2.869999886   9546253.000
 3.059999943   9548145.000
 3.250000000   9550045.000
 3.440000057   9551960.000
 3.630000114   9553881.000
 3.819999933   9555795.000
 4.010000229   9557697.000
 4.199999809   9559591.000
 4.389999866   9561492.000
 4.579999924   9563403.000
 4.769999981   9565319.000
 4.960000038   9567227.000
 5.150000095   9569120.000
 5.340000153   9571007.000
 5.530000210   9572896.000
 5.719999790   9574795.000
 5.909999847   9576700.000
 6.099999905   9578596.000
 6.289999962   9580483.000
 6.480000019   9582363.000
 6.670000076   9584251.000
 6.860000134   9586156.000
 7.050000191   9588072.000
 7.239999771   9589984.000
 7.429999828   9591887.000
 7.619999886   9593782.000
 7.809999943   9595683.000
 8.000000000   9597593.000
 8.189999580   9599509.000
 8.380000114   9601425.000
 8.569999695   9603332.000
 8.760000229   9605235.000
 8.949999809   9607142.000
 9.140000343   9609058.000
 9.329999924   9610981.000
 9.520000458   9612898.000
 9.710000038   9614805.000
 9.899999619   9616704.000
 10.09000015   9618605.000
 10.27999973   9620518.000
 10.47000027   9622437.000
 10.65999985   9624358.000
 10.85000038   9626274.000
 11.03999996   9628183.000
 11.22999954   9630094.000
 11.42000008   9632012.000
 11.60999966   9633938.000
 11.80000019   9635862.000
 11.98999977   9637781.000
 12.18000031   9639693.000
 12.36999989   9641605.000
 12.56000042   9643523.000
 12.75000000   9645450.000
 12.93999958   9647379.000
 13.13000011   9649306.000
 13.31999969   9651225.000
 13.51000023   9653143.000
 13.69999981   9655066.000
 13.89000034   9656992.000
 14.07999992   9658919.000
 14.27000046   9660839.000
 14.46000004   9662755.000
 14.64999962   9664669.000
 14.84000015   9666581.000
 15.02999973   9668495.000
 15.22000027   9670408.000
 15.40999985   9672316.000
 15.60000038   9674221.000
 15.78999996   9676125.000
 15.97999954   9678029.000
 16.17000008   9679936.000
 16.36000061   9681852.000
 16.54999924   9683768.000
 16.73999977   9685685.000
 16.93000031   9687600.000
 17.12000084   9689517.000
 17.30999947   9691430.000
 17.50000000   9693340.000
 17.69000053   9695242.000
 17.87999916   9697140.000
 18.06999969   9699036.000
 18.26000023   9700933.000
 18.45000076   9702833.000
 18.63999939   9704737.000
 18.82999992   9706641.000
 19.02000046   9708546.000
 19.20999908   9710449.000
 19.39999962   9712355.000
 19.59000015   9714263.000
 19.78000069   9716177.000
 19.96999931   9718095.000
 20.15999985   9720017.000
 20.35000038   9721940.000
 20.54000092   9723863.000
 20.72999954   9725782.000
 20.92000008   9727700.000
 21.11000061   9729621.000
 21.29999924   9731539.000
 21.48999977   9733454.000
 21.68000031   9735364.000
 21.87000084   9737274.000
 22.05999947   9739186.000
 22.25000000   9741105.000
 22.44000053   9743030.000
 22.62999916   9744953.000
 22.81999969   9746879.000
 23.01000023   9748804.000
 23.20000076   9750735.000
 23.38999939   9752674.000
 23.57999992   9754618.000
 23.77000046   9756558.000
 23.95999908   9758491.000
 24.14999962   9760421.000
 24.34000015   9762352.000
 24.53000069   9764292.000
 24.71999931   9766239.000
 24.90999985   9768191.000
 25.10000038   9770136.000
 25.29000092   9772078.000
 25.47999954   9774022.000
 25.67000008   9775974.000
 25.86000061   9777928.000
 26.04999924   9779883.000
 26.23999977   9781829.000
 26.43000031   9783771.000
 26.62000084   9785706.000
 26.80999947   9787648.000
