 -30.00000000   -6073155.000
 -29.80999947   -6074405.000
 -29.62000084   -6075660.000
 -29.43000031   -6076920.000
 -29.23999977   -6078178.500
 -29.04999924   -6079432.000
 -28.86000061   -6080679.500
 -28.67000008   -6081921.500
 -28.47999954   -6083159.500
 -28.29000092   -6084396.000
 -28.10000038   -6085636.000
 -27.90999985   -6086882.500
 -27.71999931   -6088136.500
 -27.53000069   -6089397.000
 -27.34000015   -6090658.500
 -27.14999962   -6091917.000
 -26.95999908   -6093169.000
 -26.77000046   -6094411.500
 -26.57999992   -6095645.500
 -26.38999939   -6096873.500
 -26.20000076   -6098098.000
 -26.01000023   -6099325.000
 -25.81999969   -6100557.500
 -25.62999916   -6101799.000
 -25.44000053   -6103045.000
 -25.25000000   -6104293.500
 -25.05999947   -6105541.500
 -24.87000084   -6106782.000
 -24.68000031   -6108015.000
 -24.48999977   -6109237.000
 -24.29999924   -6110453.500
 -24.11000061   -6111667.500
 -23.92000008   -6112883.500
 -23.72999954   -6114108.500
 -23.54000092   -6115339.500
 -23.35000038   -6116580.000
 -23.15999985   -6117824.000
 -22.96999931   -6119068.500
 -22.78000069   -6120309.500
 -22.59000015   -6121541.000
 -22.39999962   -6122762.500
 -22.20999908   -6123978.000
 -22.02000046   -6125189.000
 -21.82999992   -6126402.000
 -21.63999939   -6127620.000
 -21.45000076   -6128846.500
 -21.26000023   -6130084.000
 -21.06999969   -6131327.500
 -20.87999916   -6132571.500
 -20.69000053   -6133810.000
 -20.50000000   -6135041.500
 -20.30999947   -6136262.500
 -20.12000084   -6137476.000
 -19.93000031   -6138687.000
 -19.73999977   -6139900.500
 -19.54999924   -6141123.500
 -19.36000061   -6142355.500
 -19.17000008   -6143599.000
 -18.97999954   -6144848.000
 -18.79000092   -6146096.500
 -18.60000038   -6147339.000
 -18.40999985   -6148571.000
 -18.21999931   -6149792.500
 -18.03000069   -6151004.500
 -17.84000015   -6152210.000
 -17.64999962   -6153419.500
 -17.45999908   -6154637.000
 -17.27000046   -6155862.000
 -17.07999992   -6157097.000
 -16.88999939   -6158337.500
 -16.70000076   -6159580.000
 -16.51000023   -6160818.000
 -16.31999969   -6162048.000
 -16.12999916   -6163266.500
 -15.93999958   -6164477.500
 -15.75000000   -6165683.500
 -15.56000042   -6166890.000
 -15.36999989   -6168100.500
 -15.18000031   -6169320.000
 -14.98999977   -6170547.000
 -14.80000019   -6171782.500
 -14.60999966   -6173018.000
 -14.42000008   -6174251.000
 -14.22999954   -6175474.500
 -14.03999996   -6176688.000
 -13.85000038   -6177892.000
 -13.65999985   -6179088.000
 -13.47000027   -6180282.500
 -13.27999973   -6181480.500
 -13.09000015   -6182686.000
 -12.89999962   -6183897.500
 -12.71000004   -6185115.000
 -12.52000046   -6186334.500
 -12.32999992   -6187549.500
 -12.14000034   -6188758.500
 -11.94999981   -6189955.500
 -11.76000023   -6191147.000
 -11.56999969   -6192333.500
 -11.38000011   -6193518.500
 -11.18999958   -6194709.500
 -11.00000000   -6195906.500
 -10.81000042   -6197112.500
 -10.61999989   -6198322.000
 -10.43000031   -6199533.000
 -10.23999977   -6200741.000
 -10.05000019   -6201940.000
 -9.859999657   -6203131.500
 -9.670000076   -6204315.000
 -9.479999542   -6205494.500
 -9.289999962   -6206674.500
 -9.100000381   -6207855.000
 -8.909999847   -6209039.500
 -8.720000267   -6210229.500
 -8.529999733   -6211420.000
 -8.340000153   -6212609.000
 -8.149999619   -6213792.500
 -7.960000038   -6214971.000
 -7.769999981   -6216141.000
 -7.579999924   -6217304.500
 -7.389999866   -6218468.500
 -7.199999809   -6219631.000
 -7.010000229   -6220797.500
 -6.820000172   -6221969.000
 -6.630000114   -6223149.500
 -6.440000057   -6224332.000
 -6.250000000   -6225520.000
 -6.059999943   -6226709.500
 -5.869999886   -6227894.000
 -5.679999828   -6229073.000
 -5.489999771   -6230246.000
 -5.300000191   -6231417.500
 -5.110000134   -6232588.000
 -4.920000076   -6233758.500
 -4.730000019   -6234935.500
 -4.539999962   -6236118.500
 -4.349999905   -6237305.500
 -4.159999847   -6238494.000
 -3.970000029   -6239682.000
 -3.779999971   -6240865.500
 -3.589999914   -6242040.500
 -3.400000095   -6243211.000
 -3.210000038   -6244379.000
 -3.019999981   -6245545.500
 -2.829999924   -6246716.000
 -2.640000105   -6247890.500
 -2.450000048   -6249067.000
 -2.259999990   -6250248.500
 -2.069999933   -6251428.000
 -1.879999995   -6252603.000
 -1.690000057   -6253776.000
 -1.500000000   -6254947.500
 -1.309999943   -6256118.000
 -1.120000005   -6257290.000
 -0.9300000072   -6258462.000
 -0.7400000095   -6259635.000
 -0.5500000119   -6260810.500
 -0.3600000143   -6261985.000
 -0.1700000018   -6263161.500
 0.1999999955E-01   -6264335.500
 0.2099999934   -6265509.000
 0.4000000060   -6266683.000
 0.5899999738   -6267853.000
 0.7799999714   -6269021.500
 0.9700000286   -6270188.000
 1.159999967   -6271355.000
 1.350000024   -6272521.500
 1.539999962   -6273691.500
 1.730000019   -6274862.500
 1.919999957   -6276039.000
 2.109999895   -6277214.500
 2.299999952   -6278391.500
 2.490000010   -6279564.500
 2.680000067   -6280733.000
 2.869999886   -6281898.000
 3.059999943   -6283059.000
 3.250000000   -6284219.500
 3.440000057   -6285376.500
 3.630000114   -6286537.000
 3.819999933   -6287697.000
 4.010000229   -6288858.000
 4.199999809   -6290017.500
 4.389999866   -6291178.500
 4.579999924   -6292338.000
 4.769999981   -6293498.000
 4.960000038   -6294661.000
 5.150000095   -6295825.500
 5.340000153   -6296992.000
 5.530000210   -6298159.000
 5.719999790   -6299327.500
 5.909999847   -6300495.000
 6.099999905   -6301659.500
 6.289999962   -6302823.000
 6.480000019   -6303985.000
 6.670000076   -6305145.000
 6.860000134   -6306305.000
 7.050000191   -6307467.000
 7.239999771   -6308630.500
 7.429999828   -6309792.000
 7.619999886   -6310957.000
 7.809999943   -6312117.500
 8.000000000   -6313277.500
 8.189999580   -6314441.000
 8.380000114   -6315602.000
 8.569999695   -6316762.000
 8.760000229   -6317923.000
 8.949999809   -6319080.500
 9.140000343   -6320239.500
 9.329999924   -6321393.500
 9.520000458   -6322549.000
 9.710000038   -6323707.000
 9.899999619   -6324867.500
 10.09000015   -6326032.000
 10.27999973   -6327199.000
 10.47000027   -6328368.500
 10.65999985   -6329538.500
 10.85000038   -6330709.500
 11.03999996   -6331879.500
 11.22999954   -6333047.000
 11.42000008   -6334214.000
 11.60999966   -6335377.500
 11.80000019   -6336539.000
 11.98999977   -6337698.500
 12.18000031   -6338857.000
 12.36999989   -6340015.500
 12.56000042   -6341174.500
 12.75000000   -6342334.500
 12.93999958   -6343495.500
 13.13000011   -6344661.000
 13.31999969   -6345823.000
 13.51000023   -6346984.500
 13.69999981   -6348140.000
 13.89000034   -6349293.000
 14.07999992   -6350442.500
 14.27000046   -6351592.000
 14.46000004   -6352744.000
 14.64999962   -6353895.500
 14.84000015   -6355053.000
 15.02999973   -6356213.000
 15.22000027   -6357370.500
 15.40999985   -6358526.000
 15.60000038   -6359680.000
 15.78999996   -6360829.500
 15.97999954   -6361975.500
 16.17000008   -6363121.000
 16.36000061   -6364265.500
 16.54999924   -6365408.500
 16.73999977   -6366554.000
 16.93000031   -6367699.500
 17.12000084   -6368844.000
 17.30999947   -6369995.000
 17.50000000   -6371144.500
 17.69000053   -6372294.000
 17.87999916   -6373446.500
 18.06999969   -6374598.500
 18.26000023   -6375750.000
 18.45000076   -6376898.000
 18.63999939   -6378045.000
 18.82999992   -6379192.000
 19.02000046   -6380337.000
 19.20999908   -6381484.000
 19.39999962   -6382627.000
 19.59000015   -6383766.000
 19.78000069   -6384905.500
 19.96999931   -6386040.000
 20.15999985   -6387173.000
 20.35000038   -6388307.000
 20.54000092   -6389443.500
 20.72999954   -6390585.000
 20.92000008   -6391731.500
 21.11000061   -6392877.500
 21.29999924   -6394023.000
 21.48999977   -6395166.000
 21.68000031   -6396304.500
 21.87000084   -6397437.500
 22.05999947   -6398567.000
 22.25000000   -6399693.000
 22.44000053   -6400822.000
 22.62999916   -6401953.500
 22.81999969   -6403087.500
 23.01000023   -6404223.500
 23.20000076   -6405361.500
 23.38999939   -6406499.000
 23.57999992   -6407632.000
 23.77000046   -6408766.000
 23.95999908   -6409894.000
 24.14999962   -6411021.500
 24.34000015   -6412150.500
 24.53000069   -6413282.500
 24.71999931   -6414419.000
 24.90999985   -6415558.000
 25.10000038   -6416697.500
 25.29000092   -6417837.500
 25.47999954   -6418972.500
 25.67000008   -6420106.500
 25.86000061   -6421237.500
 26.04999924   -6422365.500
 26.23999977   -6423491.500
 26.43000031   -6424620.000
 26.62000084   -6425751.000
 26.80999947   -6426890.500
