 -30.00000000   -2878469.500
 -29.80999947   -2879059.000
 -29.62000084   -2879649.750
 -29.43000031   -2880241.000
 -29.23999977   -2880832.000
 -29.04999924   -2881422.750
 -28.86000061   -2882014.000
 -28.67000008   -2882604.750
 -28.47999954   -2883196.250
 -28.29000092   -2883790.250
 -28.10000038   -2884382.000
 -27.90999985   -2884973.750
 -27.71999931   -2885564.750
 -27.53000069   -2886154.000
 -27.34000015   -2886744.000
 -27.14999962   -2887334.500
 -26.95999908   -2887924.750
 -26.77000046   -2888516.500
 -26.57999992   -2889108.500
 -26.38999939   -2889700.750
 -26.20000076   -2890291.000
 -26.01000023   -2890882.500
 -25.81999969   -2891471.750
 -25.62999916   -2892061.500
 -25.44000053   -2892651.500
 -25.25000000   -2893243.500
 -25.05999947   -2893836.250
 -24.87000084   -2894427.000
 -24.68000031   -2895018.750
 -24.48999977   -2895609.250
 -24.29999924   -2896199.000
 -24.11000061   -2896787.000
 -23.92000008   -2897374.000
 -23.72999954   -2897959.500
 -23.54000092   -2898545.250
 -23.35000038   -2899131.250
 -23.15999985   -2899716.750
 -22.96999931   -2900303.250
 -22.78000069   -2900890.000
 -22.59000015   -2901478.750
 -22.39999962   -2902067.500
 -22.20999908   -2902657.250
 -22.02000046   -2903248.500
 -21.82999992   -2903841.250
 -21.63999939   -2904437.500
 -21.45000076   -2905036.500
 -21.26000023   -2905638.000
 -21.06999969   -2906239.500
 -20.87999916   -2906843.750
 -20.69000053   -2907449.250
 -20.50000000   -2908055.250
 -20.30999947   -2908660.500
 -20.12000084   -2909267.750
 -19.93000031   -2909876.250
 -19.73999977   -2910485.500
 -19.54999924   -2911096.000
 -19.36000061   -2911708.000
 -19.17000008   -2912321.500
 -18.97999954   -2912938.000
 -18.79000092   -2913556.250
 -18.60000038   -2914175.750
 -18.40999985   -2914794.750
 -18.21999931   -2915413.750
 -18.03000069   -2916029.750
 -17.84000015   -2916646.750
 -17.64999962   -2917261.000
 -17.45999908   -2917874.250
 -17.27000046   -2918486.750
 -17.07999992   -2919096.750
 -16.88999939   -2919705.750
 -16.70000076   -2920310.500
 -16.51000023   -2920912.000
 -16.31999969   -2921508.250
 -16.12999916   -2922102.250
 -15.93999958   -2922692.250
 -15.75000000   -2923281.000
 -15.56000042   -2923869.500
 -15.36999989   -2924459.750
 -15.18000031   -2925050.250
 -14.98999977   -2925638.250
 -14.80000019   -2926223.250
 -14.60999966   -2926803.000
 -14.42000008   -2927379.750
 -14.22999954   -2927951.750
 -14.03999996   -2928521.000
 -13.85000038   -2929089.750
 -13.65999985   -2929659.500
 -13.47000027   -2930230.750
 -13.27999973   -2930802.500
 -13.09000015   -2931375.750
 -12.89999962   -2931945.250
 -12.71000004   -2932515.250
 -12.52000046   -2933081.000
 -12.32999992   -2933647.250
 -12.14000034   -2934213.000
 -11.94999981   -2934780.500
 -11.76000023   -2935350.500
 -11.56999969   -2935922.000
 -11.38000011   -2936497.000
 -11.18999958   -2937076.000
 -11.00000000   -2937656.000
 -10.81000042   -2938239.750
 -10.61999989   -2938823.750
 -10.43000031   -2939408.250
 -10.23999977   -2939992.000
 -10.05000019   -2940579.000
 -9.859999657   -2941165.500
 -9.670000076   -2941752.750
 -9.479999542   -2942345.000
 -9.289999962   -2942935.750
 -9.100000381   -2943529.000
 -8.909999847   -2944123.000
 -8.720000267   -2944717.000
 -8.529999733   -2945309.250
 -8.340000153   -2945903.750
 -8.149999619   -2946498.750
 -7.960000038   -2947097.250
 -7.769999981   -2947695.500
 -7.579999924   -2948298.000
 -7.389999866   -2948899.750
 -7.199999809   -2949504.000
 -7.010000229   -2950108.750
 -6.820000172   -2950712.750
 -6.630000114   -2951317.250
 -6.440000057   -2951925.000
 -6.250000000   -2952532.500
 -6.059999943   -2953142.250
 -5.869999886   -2953754.500
 -5.679999828   -2954367.000
 -5.489999771   -2954980.500
 -5.300000191   -2955596.250
 -5.110000134   -2956210.000
 -4.920000076   -2956826.750
 -4.730000019   -2957446.750
 -4.539999962   -2958069.250
 -4.349999905   -2958689.750
 -4.159999847   -2959310.000
 -3.970000029   -2959926.750
 -3.779999971   -2960536.750
 -3.589999914   -2961140.750
 -3.400000095   -2961741.250
 -3.210000038   -2962340.250
 -3.019999981   -2962941.750
 -2.829999924   -2963543.750
 -2.640000105   -2964148.000
 -2.450000048   -2964750.250
 -2.259999990   -2965350.250
 -2.069999933   -2965948.500
 -1.879999995   -2966546.750
 -1.690000057   -2967146.250
 -1.500000000   -2967745.500
 -1.309999943   -2968350.250
 -1.120000005   -2968956.250
 -0.9300000072   -2969564.250
 -0.7400000095   -2970171.000
 -0.5500000119   -2970775.250
 -0.3600000143   -2971378.250
 -0.1700000018   -2971982.250
 0.1999999955E-01   -2972586.250
 0.2099999934   -2973190.250
 0.4000000060   -2973793.750
 0.5899999738   -2974397.500
 0.7799999714   -2975000.250
 0.9700000286   -2975602.250
 1.159999967   -2976204.000
 1.350000024   -2976808.750
 1.539999962   -2977413.500
 1.730000019   -2978025.000
 1.919999957   -2978638.750
 2.109999895   -2979254.750
 2.299999952   -2979870.250
 2.490000010   -2980484.750
 2.680000067   -2981096.250
 2.869999886   -2981708.750
 3.059999943   -2982323.000
 3.250000000   -2982942.000
 3.440000057   -2983566.000
 3.630000114   -2984196.000
 3.819999933   -2984824.000
 4.010000229   -2985453.000
 4.199999809   -2986079.000
 4.389999866   -2986705.000
 4.579999924   -2987333.250
 4.769999981   -2987964.000
 4.960000038   -2988600.250
 5.150000095   -2989240.000
 5.340000153   -2989881.750
 5.530000210   -2990522.750
 5.719999790   -2991160.000
 5.909999847   -2991792.000
 6.099999905   -2992422.250
 6.289999962   -2993049.750
 6.480000019   -2993674.750
 6.670000076   -2994297.750
 6.860000134   -2994919.000
 7.050000191   -2995538.000
 7.239999771   -2996151.250
 7.429999828   -2996759.000
 7.619999886   -2997364.500
 7.809999943   -2997964.500
 8.000000000   -2998564.250
 8.189999580   -2999165.000
 8.380000114   -2999767.000
 8.569999695   -3000366.750
 8.760000229   -3000965.750
 8.949999809   -3001567.500
 9.140000343   -3002167.250
 9.329999924   -3002771.000
 9.520000458   -3003377.000
 9.710000038   -3003988.500
 9.899999619   -3004602.000
 10.09000015   -3005215.750
 10.27999973   -3005826.500
 10.47000027   -3006432.750
 10.65999985   -3007036.250
 10.85000038   -3007635.750
 11.03999996   -3008237.000
 11.22999954   -3008843.750
 11.42000008   -3009456.000
 11.60999966   -3010072.750
 11.80000019   -3010692.500
 11.98999977   -3011313.000
 12.18000031   -3011931.000
 12.36999989   -3012546.500
 12.56000042   -3013164.000
 12.75000000   -3013782.750
 12.93999958   -3014403.750
 13.13000011   -3015026.500
 13.31999969   -3015652.500
 13.51000023   -3016278.000
 13.69999981   -3016903.000
 13.89000034   -3017528.250
 14.07999992   -3018154.500
 14.27000046   -3018784.500
 14.46000004   -3019417.250
 14.64999962   -3020054.750
 14.84000015   -3020695.000
 15.02999973   -3021336.500
 15.22000027   -3021973.500
 15.40999985   -3022607.000
 15.60000038   -3023239.750
 15.78999996   -3023872.750
 15.97999954   -3024505.750
 16.17000008   -3025143.750
 16.36000061   -3025784.500
 16.54999924   -3026425.750
 16.73999977   -3027065.750
 16.93000031   -3027700.000
 17.12000084   -3028328.500
 17.30999947   -3028952.750
 17.50000000   -3029575.750
 17.69000053   -3030198.750
 17.87999916   -3030822.250
 18.06999969   -3031445.750
 18.26000023   -3032067.750
 18.45000076   -3032684.000
 18.63999939   -3033297.750
 18.82999992   -3033906.250
 19.02000046   -3034514.250
 19.20999908   -3035127.500
 19.39999962   -3035746.000
 19.59000015   -3036368.500
 19.78000069   -3036994.500
 19.96999931   -3037618.750
 20.15999985   -3038241.000
 20.35000038   -3038856.750
 20.54000092   -3039468.750
 20.72999954   -3040081.750
 20.92000008   -3040697.750
 21.11000061   -3041317.750
 21.29999924   -3041941.750
 21.48999977   -3042565.500
 21.68000031   -3043187.500
 21.87000084   -3043804.500
 22.05999947   -3044418.000
 22.25000000   -3045028.500
 22.44000053   -3045638.000
 22.62999916   -3046251.500
 22.81999969   -3046868.750
 23.01000023   -3047484.750
 23.20000076   -3048100.250
 23.38999939   -3048711.500
 23.57999992   -3049316.250
 23.77000046   -3049917.250
 23.95999908   -3050516.000
 24.14999962   -3051119.000
 24.34000015   -3051724.500
 24.53000069   -3052332.500
 24.71999931   -3052941.500
 24.90999985   -3053549.250
 25.10000038   -3054150.250
 25.29000092   -3054748.250
 25.47999954   -3055340.000
 25.67000008   -3055933.750
 25.86000061   -3056525.750
 26.04999924   -3057120.750
 26.23999977   -3057715.500
 26.43000031   -3058306.750
 26.62000084   -3058893.000
 26.80999947   -3059475.750
