 -30.00000000   8754992.000
 -29.80999947   8756773.000
 -29.62000084   8758546.000
 -29.43000031   8760316.000
 -29.23999977   8762088.000
 -29.04999924   8763864.000
 -28.86000061   8765645.000
 -28.67000008   8767430.000
 -28.47999954   8769216.000
 -28.29000092   8771002.000
 -28.10000038   8772784.000
 -27.90999985   8774559.000
 -27.71999931   8776328.000
 -27.53000069   8778091.000
 -27.34000015   8779852.000
 -27.14999962   8781617.000
 -26.95999908   8783388.000
 -26.77000046   8785168.000
 -26.57999992   8786954.000
 -26.38999939   8788745.000
 -26.20000076   8790533.000
 -26.01000023   8792316.000
 -25.81999969   8794091.000
 -25.62999916   8795858.000
 -25.44000053   8797621.000
 -25.25000000   8799382.000
 -25.05999947   8801145.000
 -24.87000084   8802911.000
 -24.68000031   8804682.000
 -24.48999977   8806456.000
 -24.29999924   8808233.000
 -24.11000061   8810009.000
 -23.92000008   8811783.000
 -23.72999954   8813552.000
 -23.54000092   8815320.000
 -23.35000038   8817085.000
 -23.15999985   8818848.000
 -22.96999931   8820615.000
 -22.78000069   8822383.000
 -22.59000015   8824156.000
 -22.39999962   8825932.000
 -22.20999908   8827711.000
 -22.02000046   8829492.000
 -21.82999992   8831274.000
 -21.63999939   8833053.000
 -21.45000076   8834829.000
 -21.26000023   8836602.000
 -21.06999969   8838371.000
 -20.87999916   8840140.000
 -20.69000053   8841906.000
 -20.50000000   8843675.000
 -20.30999947   8845445.000
 -20.12000084   8847221.000
 -19.93000031   8849000.000
 -19.73999977   8850782.000
 -19.54999924   8852565.000
 -19.36000061   8854347.000
 -19.17000008   8856127.000
 -18.97999954   8857905.000
 -18.79000092   8859679.000
 -18.60000038   8861454.000
 -18.40999985   8863228.000
 -18.21999931   8865004.000
 -18.03000069   8866784.000
 -17.84000015   8868567.000
 -17.64999962   8870353.000
 -17.45999908   8872140.000
 -17.27000046   8873927.000
 -17.07999992   8875709.000
 -16.88999939   8877486.000
 -16.70000076   8879260.000
 -16.51000023   8881027.000
 -16.31999969   8882791.000
 -16.12999916   8884555.000
 -15.93999958   8886319.000
 -15.75000000   8888084.000
 -15.56000042   8889850.000
 -15.36999989   8891615.000
 -15.18000031   8893378.000
 -14.98999977   8895133.000
 -14.80000019   8896882.000
 -14.60999966   8898624.000
 -14.42000008   8900359.000
 -14.22999954   8902094.000
 -14.03999996   8903829.000
 -13.85000038   8905570.000
 -13.65999985   8907318.000
 -13.47000027   8909074.000
 -13.27999973   8910835.000
 -13.09000015   8912596.000
 -12.89999962   8914355.000
 -12.71000004   8916109.000
 -12.52000046   8917856.000
 -12.32999992   8919599.000
 -12.14000034   8921338.000
 -11.94999981   8923081.000
 -11.76000023   8924829.000
 -11.56999969   8926585.000
 -11.38000011   8928349.000
 -11.18999958   8930116.000
 -11.00000000   8931883.000
 -10.81000042   8933643.000
 -10.61999989   8935395.000
 -10.43000031   8937135.000
 -10.23999977   8938867.000
 -10.05000019   8940590.000
 -9.859999657   8942313.000
 -9.670000076   8944039.000
 -9.479999542   8945771.000
 -9.289999962   8947512.000
 -9.100000381   8949260.000
 -8.909999847   8951012.000
 -8.720000267   8952764.000
 -8.529999733   8954511.000
 -8.340000153   8956250.000
 -8.149999619   8957979.000
 -7.960000038   8959704.000
 -7.769999981   8961427.000
 -7.579999924   8963154.000
 -7.389999866   8964889.000
 -7.199999809   8966633.000
 -7.010000229   8968386.000
 -6.820000172   8970142.000
 -6.630000114   8971893.000
 -6.440000057   8973634.000
 -6.250000000   8975360.000
 -6.059999943   8977072.000
 -5.869999886   8978771.000
 -5.679999828   8980465.000
 -5.489999771   8982160.000
 -5.300000191   8983863.000
 -5.110000134   8985575.000
 -4.920000076   8987296.000
 -4.730000019   8989020.000
 -4.539999962   8990743.000
 -4.349999905   8992457.000
 -4.159999847   8994158.000
 -3.970000029   8995847.000
 -3.779999971   8997530.000
 -3.589999914   8999213.000
 -3.400000095   9000903.000
 -3.210000038   9002609.000
 -3.019999981   9004330.000
 -2.829999924   9006064.000
 -2.640000105   9007806.000
 -2.450000048   9009544.000
 -2.259999990   9011270.000
 -2.069999933   9012978.000
 -1.879999995   9014669.000
 -1.690000057   9016345.000
 -1.500000000   9018015.000
 -1.309999943   9019689.000
 -1.120000005   9021376.000
 -0.9300000072   9023078.000
 -0.7400000095   9024795.000
 -0.5500000119   9026523.000
 -0.3600000143   9028250.000
 -0.1700000018   9029966.000
 0.1999999955E-01   9031669.000
 0.2099999934   9033352.000
 0.4000000060   9035025.000
 0.5899999738   9036694.000
 0.7799999714   9038369.000
 0.9700000286   9040058.000
 1.159999967   9041765.000
 1.350000024   9043487.000
 1.539999962   9045219.000
 1.730000019   9046949.000
 1.919999957   9048666.000
 2.109999895   9050369.000
 2.299999952   9052051.000
 2.490000010   9053720.000
 2.680000067   9055387.000
 2.869999886   9057057.000
 3.059999943   9058744.000
 3.250000000   9060448.000
 3.440000057   9062167.000
 3.630000114   9063897.000
 3.819999933   9065628.000
 4.010000229   9067348.000
 4.199999809   9069058.000
 4.389999866   9070755.000
 4.579999924   9072441.000
 4.769999981   9074122.000
 4.960000038   9075806.000
 5.150000095   9077495.000
 5.340000153   9079193.000
 5.530000210   9080898.000
 5.719999790   9082608.000
 5.909999847   9084319.000
 6.099999905   9086025.000
 6.289999962   9087720.000
 6.480000019   9089405.000
 6.670000076   9091081.000
 6.860000134   9092752.000
 7.050000191   9094422.000
 7.239999771   9096099.000
 7.429999828   9097782.000
 7.619999886   9099474.000
 7.809999943   9101174.000
 8.000000000   9102876.000
 8.189999580   9104575.000
 8.380000114   9106267.000
 8.569999695   9107950.000
 8.760000229   9109628.000
 8.949999809   9111304.000
 9.140000343   9112980.000
 9.329999924   9114662.000
 9.520000458   9116356.000
 9.710000038   9118055.000
 9.899999619   9119760.000
 10.09000015   9121464.000
 10.27999973   9123164.000
 10.47000027   9124857.000
 10.65999985   9126543.000
 10.85000038   9128226.000
 11.03999996   9129909.000
 11.22999954   9131595.000
 11.42000008   9133286.000
 11.60999966   9134980.000
 11.80000019   9136679.000
 11.98999977   9138376.000
 12.18000031   9140070.000
 12.36999989   9141757.000
 12.56000042   9143437.000
 12.75000000   9145108.000
 12.93999958   9146770.000
 13.13000011   9148431.000
 13.31999969   9150090.000
 13.51000023   9151752.000
 13.69999981   9153421.000
 13.89000034   9155096.000
 14.07999992   9156778.000
 14.27000046   9158461.000
 14.46000004   9160144.000
 14.64999962   9161818.000
 14.84000015   9163485.000
 15.02999973   9165139.000
 15.22000027   9166785.000
 15.40999985   9168431.000
 15.60000038   9170081.000
 15.78999996   9171740.000
 15.97999954   9173411.000
 16.17000008   9175091.000
 16.36000061   9176776.000
 16.54999924   9178459.000
 16.73999977   9180134.000
 16.93000031   9181800.000
 17.12000084   9183455.000
 17.30999947   9185104.000
 17.50000000   9186748.000
 17.69000053   9188395.000
 17.87999916   9190044.000
 18.06999969   9191704.000
 18.26000023   9193369.000
 18.45000076   9195039.000
 18.63999939   9196711.000
 18.82999992   9198382.000
 19.02000046   9200047.000
 19.20999908   9201702.000
 19.39999962   9203351.000
 19.59000015   9204995.000
 19.78000069   9206639.000
 19.96999931   9208288.000
 20.15999985   9209947.000
 20.35000038   9211614.000
 20.54000092   9213288.000
 20.72999954   9214967.000
 20.92000008   9216641.000
 21.11000061   9218306.000
 21.29999924   9219959.000
 21.48999977   9221602.000
 21.68000031   9223239.000
 21.87000084   9224876.000
 22.05999947   9226520.000
 22.25000000   9228173.000
 22.44000053   9229835.000
 22.62999916   9231505.000
 22.81999969   9233175.000
 23.01000023   9234843.000
 23.20000076   9236505.000
 23.38999939   9238158.000
 23.57999992   9239807.000
 23.77000046   9241452.000
 23.95999908   9243094.000
 24.14999962   9244740.000
 24.34000015   9246391.000
 24.53000069   9248046.000
 24.71999931   9249699.000
 24.90999985   9251350.000
 25.10000038   9252996.000
 25.29000092   9254635.000
 25.47999954   9256267.000
 25.67000008   9257896.000
 25.86000061   9259523.000
 26.04999924   9261154.000
 26.23999977   9262791.000
 26.43000031   9264431.000
 26.62000084   9266074.000
 26.80999947   9267714.000
