 -30.00000000   8518314.000
 -29.80999947   8520101.000
 -29.62000084   8521926.000
 -29.43000031   8523772.000
 -29.23999977   8525614.000
 -29.04999924   8527436.000
 -28.86000061   8529226.000
 -28.67000008   8530989.000
 -28.47999954   8532731.000
 -28.29000092   8534474.000
 -28.10000038   8536236.000
 -27.90999985   8538029.000
 -27.71999931   8539858.000
 -27.53000069   8541717.000
 -27.34000015   8543589.000
 -27.14999962   8545454.000
 -26.95999908   8547293.000
 -26.77000046   8549092.000
 -26.57999992   8550848.000
 -26.38999939   8552574.000
 -26.20000076   8554284.000
 -26.01000023   8556006.000
 -25.81999969   8557755.000
 -25.62999916   8559542.000
 -25.44000053   8561365.000
 -25.25000000   8563209.000
 -25.05999947   8565057.000
 -24.87000084   8566891.000
 -24.68000031   8568688.000
 -24.48999977   8570449.000
 -24.29999924   8572174.000
 -24.11000061   8573882.000
 -23.92000008   8575594.000
 -23.72999954   8577327.000
 -23.54000092   8579096.000
 -23.35000038   8580898.000
 -23.15999985   8582724.000
 -22.96999931   8584557.000
 -22.78000069   8586377.000
 -22.59000015   8588169.000
 -22.39999962   8589924.000
 -22.20999908   8591647.000
 -22.02000046   8593345.000
 -21.82999992   8595034.000
 -21.63999939   8596738.000
 -21.45000076   8598468.000
 -21.26000023   8600231.000
 -21.06999969   8602021.000
 -20.87999916   8603827.000
 -20.69000053   8605627.000
 -20.50000000   8607408.000
 -20.30999947   8609157.000
 -20.12000084   8610872.000
 -19.93000031   8612560.000
 -19.73999977   8614231.000
 -19.54999924   8615908.000
 -19.36000061   8617603.000
 -19.17000008   8619330.000
 -18.97999954   8621089.000
 -18.79000092   8622871.000
 -18.60000038   8624658.000
 -18.40999985   8626431.000
 -18.21999931   8628177.000
 -18.03000069   8629893.000
 -17.84000015   8631580.000
 -17.64999962   8633250.000
 -17.45999908   8634919.000
 -17.27000046   8636601.000
 -17.07999992   8638306.000
 -16.88999939   8640042.000
 -16.70000076   8641807.000
 -16.51000023   8643579.000
 -16.31999969   8645343.000
 -16.12999916   8647083.000
 -15.93999958   8648789.000
 -15.75000000   8650465.000
 -15.56000042   8652118.000
 -15.36999989   8653763.000
 -15.18000031   8655413.000
 -14.98999977   8657081.000
 -14.80000019   8658774.000
 -14.60999966   8660494.000
 -14.42000008   8662233.000
 -14.22999954   8663975.000
 -14.03999996   8665707.000
 -13.85000038   8667413.000
 -13.65999985   8669087.000
 -13.47000027   8670739.000
 -13.27999973   8672376.000
 -13.09000015   8674013.000
 -12.89999962   8675664.000
 -12.71000004   8677340.000
 -12.52000046   8679043.000
 -12.32999992   8680767.000
 -12.14000034   8682505.000
 -11.94999981   8684241.000
 -11.76000023   8685959.000
 -11.56999969   8687649.000
 -11.38000011   8689309.000
 -11.18999958   8690952.000
 -11.00000000   8692589.000
 -10.81000042   8694236.000
 -10.61999989   8695907.000
 -10.43000031   8697605.000
 -10.23999977   8699328.000
 -10.05000019   8701065.000
 -9.859999657   8702811.000
 -9.670000076   8704543.000
 -9.479999542   8706256.000
 -9.289999962   8707942.000
 -9.100000381   8709605.000
 -8.909999847   8711255.000
 -8.720000267   8712909.000
 -8.529999733   8714582.000
 -8.340000153   8716277.000
 -8.149999619   8717999.000
 -7.960000038   8719737.000
 -7.769999981   8721484.000
 -7.579999924   8723226.000
 -7.389999866   8724952.000
 -7.199999809   8726656.000
 -7.010000229   8728335.000
 -6.820000172   8729999.000
 -6.630000114   8731657.000
 -6.440000057   8733323.000
 -6.250000000   8735012.000
 -6.059999943   8736728.000
 -5.869999886   8738469.000
 -5.679999828   8740224.000
 -5.489999771   8741981.000
 -5.300000191   8743727.000
 -5.110000134   8745451.000
 -4.920000076   8747151.000
 -4.730000019   8748828.000
 -4.539999962   8750494.000
 -4.349999905   8752155.000
 -4.159999847   8753829.000
 -3.970000029   8755523.000
 -3.779999971   8757243.000
 -3.589999914   8758978.000
 -3.400000095   8760718.000
 -3.210000038   8762448.000
 -3.019999981   8764159.000
 -2.829999924   8765847.000
 -2.640000105   8767512.000
 -2.450000048   8769163.000
 -2.259999990   8770806.000
 -2.069999933   8772461.000
 -1.879999995   8774132.000
 -1.690000057   8775824.000
 -1.500000000   8777537.000
 -1.309999943   8779267.000
 -1.120000005   8780993.000
 -0.9300000072   8782710.000
 -0.7400000095   8784406.000
 -0.5500000119   8786080.000
 -0.3600000143   8787736.000
 -0.1700000018   8789384.000
 0.1999999955E-01   8791031.000
 0.2099999934   8792686.000
 0.4000000060   8794356.000
 0.5899999738   8796045.000
 0.7799999714   8797749.000
 0.9700000286   8799461.000
 1.159999967   8801169.000
 1.350000024   8802865.000
 1.539999962   8804545.000
 1.730000019   8806206.000
 1.919999957   8807854.000
 2.109999895   8809497.000
 2.299999952   8811148.000
 2.490000010   8812808.000
 2.680000067   8814485.000
 2.869999886   8816179.000
 3.059999943   8817885.000
 3.250000000   8819596.000
 3.440000057   8821299.000
 3.630000114   8822983.000
 3.819999933   8824646.000
 4.010000229   8826284.000
 4.199999809   8827910.000
 4.389999866   8829531.000
 4.579999924   8831159.000
 4.769999981   8832802.000
 4.960000038   8834465.000
 5.150000095   8836145.000
 5.340000153   8837838.000
 5.530000210   8839531.000
 5.719999790   8841216.000
 5.909999847   8842878.000
 6.099999905   8844522.000
 6.289999962   8846149.000
 6.480000019   8847770.000
 6.670000076   8849396.000
 6.860000134   8851037.000
 7.050000191   8852701.000
 7.239999771   8854384.000
 7.429999828   8856078.000
 7.619999886   8857772.000
 7.809999943   8859451.000
 8.000000000   8861108.000
 8.189999580   8862739.000
 8.380000114   8864350.000
 8.569999695   8865944.000
 8.760000229   8867541.000
 8.949999809   8869146.000
 9.140000343   8870777.000
 9.329999924   8872429.000
 9.520000458   8874101.000
 9.710000038   8875780.000
 9.899999619   8877460.000
 10.09000015   8879127.000
 10.27999973   8880776.000
 10.47000027   8882405.000
 10.65999985   8884022.000
 10.85000038   8885636.000
 11.03999996   8887257.000
 11.22999954   8888898.000
 11.42000008   8890562.000
 11.60999966   8892245.000
 11.80000019   8893940.000
 11.98999977   8895634.000
 12.18000031   8897316.000
 12.36999989   8898971.000
 12.56000042   8900600.000
 12.75000000   8902205.000
 12.93999958   8903789.000
 13.13000011   8905375.000
 13.31999969   8906972.000
 13.51000023   8908585.000
 13.69999981   8910219.000
 13.89000034   8911870.000
 14.07999992   8913527.000
 14.27000046   8915176.000
 14.46000004   8916807.000
 14.64999962   8918417.000
 14.84000015   8920006.000
 15.02999973   8921586.000
 15.22000027   8923165.000
 15.40999985   8924760.000
 15.60000038   8926377.000
 15.78999996   8928022.000
 15.97999954   8929690.000
 16.17000008   8931371.000
 16.36000061   8933054.000
 16.54999924   8934722.000
 16.73999977   8936369.000
 16.93000031   8937998.000
 17.12000084   8939610.000
 17.30999947   8941216.000
 17.50000000   8942831.000
 17.69000053   8944460.000
 17.87999916   8946110.000
 18.06999969   8947782.000
 18.26000023   8949462.000
 18.45000076   8951146.000
 18.63999939   8952816.000
 18.82999992   8954466.000
 19.02000046   8956090.000
 19.20999908   8957693.000
 19.39999962   8959280.000
 19.59000015   8960868.000
 19.78000069   8962462.000
 19.96999931   8964070.000
 20.15999985   8965698.000
 20.35000038   8967339.000
 20.54000092   8968988.000
 20.72999954   8970632.000
 20.92000008   8972264.000
 21.11000061   8973874.000
 21.29999924   8975471.000
 21.48999977   8977054.000
 21.68000031   8978639.000
 21.87000084   8980235.000
 22.05999947   8981845.000
 22.25000000   8983479.000
 22.44000053   8985126.000
 22.62999916   8986784.000
 22.81999969   8988443.000
 23.01000023   8990092.000
 23.20000076   8991726.000
 23.38999939   8993338.000
 23.57999992   8994933.000
 23.77000046   8996516.000
 23.95999908   8998100.000
 24.14999962   8999689.000
 24.34000015   9001293.000
 24.53000069   9002911.000
 24.71999931   9004539.000
 24.90999985   9006172.000
 25.10000038   9007799.000
 25.29000092   9009409.000
 25.47999954   9011000.000
 25.67000008   9012572.000
 25.86000061   9014128.000
 26.04999924   9015680.000
 26.23999977   9017242.000
 26.43000031   9018824.000
 26.62000084   9020428.000
 26.80999947   9022052.000
