 -30.00000000   -7017955.000
 -29.80999947   -7019330.500
 -29.62000084   -7020691.000
 -29.43000031   -7022080.000
 -29.23999977   -7023507.000
 -29.04999924   -7024938.000
 -28.86000061   -7026330.000
 -28.67000008   -7027682.000
 -28.47999954   -7029024.000
 -28.29000092   -7030401.500
 -28.10000038   -7031824.000
 -27.90999985   -7033262.500
 -27.71999931   -7034665.500
 -27.53000069   -7036022.000
 -27.34000015   -7037358.500
 -27.14999962   -7038724.000
 -26.95999908   -7040137.500
 -26.77000046   -7041571.500
 -26.57999992   -7042978.500
 -26.38999939   -7044339.000
 -26.20000076   -7045676.500
 -26.01000023   -7047038.000
 -25.81999969   -7048444.000
 -25.62999916   -7049875.500
 -25.44000053   -7051286.500
 -25.25000000   -7052656.000
 -25.05999947   -7054001.000
 -24.87000084   -7055366.500
 -24.68000031   -7056779.000
 -24.48999977   -7058222.000
 -24.29999924   -7059654.000
 -24.11000061   -7061046.000
 -23.92000008   -7062407.500
 -23.72999954   -7063778.500
 -23.54000092   -7065189.000
 -23.35000038   -7066629.500
 -23.15999985   -7068066.500
 -22.96999931   -7069468.500
 -22.78000069   -7070839.500
 -22.59000015   -7072217.000
 -22.39999962   -7073634.500
 -22.20999908   -7075090.500
 -22.02000046   -7076551.000
 -21.82999992   -7077978.000
 -21.63999939   -7079368.500
 -21.45000076   -7080757.500
 -21.26000023   -7082179.500
 -21.06999969   -7083637.500
 -20.87999916   -7085103.500
 -20.69000053   -7086542.500
 -20.50000000   -7087943.000
 -20.30999947   -7089337.500
 -20.12000084   -7090759.000
 -19.93000031   -7092218.000
 -19.73999977   -7093687.500
 -19.54999924   -7095132.500
 -19.36000061   -7096538.000
 -19.17000008   -7097929.500
 -18.97999954   -7099343.000
 -18.79000092   -7100792.000
 -18.60000038   -7102259.500
 -18.40999985   -7103709.000
 -18.21999931   -7105124.000
 -18.03000069   -7106522.000
 -17.84000015   -7107939.500
 -17.64999962   -7109387.000
 -17.45999908   -7110851.500
 -17.27000046   -7112299.500
 -17.07999992   -7113714.000
 -16.88999939   -7115106.000
 -16.70000076   -7116506.500
 -16.51000023   -7117939.000
 -16.31999969   -7119388.000
 -16.12999916   -7120829.500
 -15.93999958   -7122242.000
 -15.75000000   -7123635.000
 -15.56000042   -7125029.500
 -15.36999989   -7126449.500
 -15.18000031   -7127892.500
 -14.98999977   -7129332.500
 -14.80000019   -7130743.500
 -14.60999966   -7132129.000
 -14.42000008   -7133515.000
 -14.22999954   -7134925.500
 -14.03999996   -7136358.500
 -13.85000038   -7137795.500
 -13.65999985   -7139210.500
 -13.47000027   -7140599.500
 -13.27999973   -7141985.500
 -13.09000015   -7143395.000
 -12.89999962   -7144825.000
 -12.71000004   -7146259.000
 -12.52000046   -7147677.000
 -12.32999992   -7149068.500
 -12.14000034   -7150456.000
 -11.94999981   -7151862.000
 -11.76000023   -7153293.500
 -11.56999969   -7154737.000
 -11.38000011   -7156168.000
 -11.18999958   -7157574.500
 -11.00000000   -7158973.500
 -10.81000042   -7160383.000
 -10.61999989   -7161815.500
 -10.43000031   -7163255.500
 -10.23999977   -7164684.000
 -10.05000019   -7166093.000
 -9.859999657   -7167492.500
 -9.670000076   -7168905.500
 -9.479999542   -7170338.500
 -9.289999962   -7171784.000
 -9.100000381   -7173220.000
 -8.909999847   -7174636.500
 -8.720000267   -7176045.500
 -8.529999733   -7177462.500
 -8.340000153   -7178897.000
 -8.149999619   -7180344.000
 -7.960000038   -7181782.500
 -7.769999981   -7183206.500
 -7.579999924   -7184621.500
 -7.389999866   -7186038.500
 -7.199999809   -7187471.500
 -7.010000229   -7188917.500
 -6.820000172   -7190361.500
 -6.630000114   -7191792.500
 -6.440000057   -7193216.500
 -6.250000000   -7194649.500
 -6.059999943   -7196104.000
 -5.869999886   -7197576.500
 -5.679999828   -7199049.000
 -5.489999771   -7200508.000
 -5.300000191   -7201956.500
 -5.110000134   -7203405.000
 -4.920000076   -7204861.000
 -4.730000019   -7206326.000
 -4.539999962   -7207781.000
 -4.349999905   -7209224.000
 -4.159999847   -7210657.000
 -3.970000029   -7212089.000
 -3.779999971   -7213536.500
 -3.589999914   -7214995.500
 -3.400000095   -7216457.500
 -3.210000038   -7217912.500
 -3.019999981   -7219359.500
 -2.829999924   -7220809.000
 -2.640000105   -7222269.500
 -2.450000048   -7223742.500
 -2.259999990   -7225218.000
 -2.069999933   -7226687.500
 -1.879999995   -7228150.500
 -1.690000057   -7229614.500
 -1.500000000   -7231087.000
 -1.309999943   -7232573.000
 -1.120000005   -7234060.000
 -0.9300000072   -7235539.500
 -0.7400000095   -7237008.000
 -0.5500000119   -7238471.500
 -0.3600000143   -7239935.000
 -0.1700000018   -7241405.500
 0.1999999955E-01   -7242875.000
 0.2099999934   -7244339.500
 0.4000000060   -7245794.000
 0.5899999738   -7247243.500
 0.7799999714   -7248697.500
 0.9700000286   -7250159.500
 1.159999967   -7251626.000
 1.350000024   -7253087.000
 1.539999962   -7254541.000
 1.730000019   -7255987.500
 1.919999957   -7257435.000
 2.109999895   -7258890.500
 2.299999952   -7260348.000
 2.490000010   -7261807.000
 2.680000067   -7263260.500
 2.869999886   -7264709.500
 3.059999943   -7266161.500
 3.250000000   -7267623.500
 3.440000057   -7269090.000
 3.630000114   -7270555.000
 3.819999933   -7272010.500
 4.010000229   -7273454.000
 4.199999809   -7274892.000
 4.389999866   -7276334.000
 4.579999924   -7277783.000
 4.769999981   -7279230.000
 4.960000038   -7280669.500
 5.150000095   -7282100.000
 5.340000153   -7283528.000
 5.530000210   -7284959.500
 5.719999790   -7286399.000
 5.909999847   -7287836.500
 6.099999905   -7289269.000
 6.289999962   -7290693.000
 6.480000019   -7292110.000
 6.670000076   -7293533.500
 6.860000134   -7294969.500
 7.050000191   -7296415.000
 7.239999771   -7297858.500
 7.429999828   -7299296.500
 7.619999886   -7300728.500
 7.809999943   -7302168.000
 8.000000000   -7303618.500
 8.189999580   -7305073.500
 8.380000114   -7306526.500
 8.569999695   -7307965.000
 8.760000229   -7309396.000
 8.949999809   -7310829.000
 9.140000343   -7312276.000
 9.329999924   -7313730.500
 9.520000458   -7315179.500
 9.710000038   -7316614.000
 9.899999619   -7318036.500
 10.09000015   -7319461.500
 10.27999973   -7320898.500
 10.47000027   -7322343.000
 10.65999985   -7323785.000
 10.85000038   -7325210.500
 11.03999996   -7326628.000
 11.22999954   -7328048.000
 11.42000008   -7329482.500
 11.60999966   -7330930.500
 11.80000019   -7332374.000
 11.98999977   -7333805.000
 12.18000031   -7335227.500
 12.36999989   -7336651.500
 12.56000042   -7338088.500
 12.75000000   -7339543.000
 12.93999958   -7340995.000
 13.13000011   -7342439.500
 13.31999969   -7343875.000
 13.51000023   -7345312.500
 13.69999981   -7346764.000
 13.89000034   -7348233.000
 14.07999992   -7349702.500
 14.27000046   -7351155.500
 14.46000004   -7352595.500
 14.64999962   -7354030.000
 14.84000015   -7355477.000
 15.02999973   -7356939.500
 15.22000027   -7358405.500
 15.40999985   -7359861.500
 15.60000038   -7361306.000
 15.78999996   -7362748.000
 15.97999954   -7364205.500
 16.17000008   -7365679.000
 16.36000061   -7367156.000
 16.54999924   -7368621.000
 16.73999977   -7370068.500
 16.93000031   -7371512.500
 17.12000084   -7372963.000
 17.30999947   -7374426.000
 17.50000000   -7375892.500
 17.69000053   -7377347.500
 17.87999916   -7378787.000
 18.06999969   -7380223.500
 18.26000023   -7381673.000
 18.45000076   -7383138.000
 18.63999939   -7384612.000
 18.82999992   -7386078.000
 19.02000046   -7387532.000
 19.20999908   -7388981.500
 19.39999962   -7390438.000
 19.59000015   -7391910.000
 19.78000069   -7393388.500
 19.96999931   -7394860.500
 20.15999985   -7396315.000
 20.35000038   -7397761.500
 20.54000092   -7399214.000
 20.72999954   -7400678.000
 20.92000008   -7402148.500
 21.11000061   -7403606.000
 21.29999924   -7405045.000
 21.48999977   -7406470.000
 21.68000031   -7407902.500
 21.87000084   -7409345.500
 22.05999947   -7410799.500
 22.25000000   -7412243.000
 22.44000053   -7413670.500
 22.62999916   -7415090.000
 22.81999969   -7416518.500
 23.01000023   -7417964.500
 23.20000076   -7419418.500
 23.38999939   -7420865.000
 23.57999992   -7422290.500
 23.77000046   -7423702.500
 23.95999908   -7425116.000
 24.14999962   -7426543.000
 24.34000015   -7427980.500
 24.53000069   -7429417.000
 24.71999931   -7430842.500
 24.90999985   -7432257.500
 25.10000038   -7433677.000
 25.29000092   -7435111.500
 25.47999954   -7436556.000
 25.67000008   -7437998.500
 25.86000061   -7439428.500
 26.04999924   -7440846.500
 26.23999977   -7442265.000
 26.43000031   -7443699.000
 26.62000084   -7445145.000
 26.80999947   -7446593.500
