 -30.00000000   73148.90625
 -29.80999947   73152.25781
 -29.62000084   73145.46094
 -29.43000031   73135.46875
 -29.23999977   73126.71875
 -29.04999924   73123.60938
 -28.86000061   73128.48438
 -28.67000008   73139.58594
 -28.47999954   73156.07031
 -28.29000092   73171.41406
 -28.10000038   73182.14062
 -27.90999985   73185.02344
 -27.71999931   73181.10938
 -27.53000069   73171.46094
 -27.34000015   73161.55469
 -27.14999962   73155.38281
 -26.95999908   73156.72656
 -26.77000046   73166.17969
 -26.57999992   73188.70312
 -26.38999939   73217.84375
 -26.20000076   73249.73438
 -26.01000023   73278.44531
 -25.81999969   73298.14844
 -25.62999916   73309.36719
 -25.44000053   73312.66406
 -25.25000000   73313.46094
 -25.05999947   73315.92188
 -24.87000084   73323.93750
 -24.68000031   73341.55469
 -24.48999977   73365.29688
 -24.29999924   73397.17969
 -24.11000061   73430.28125
 -23.92000008   73460.59375
 -23.72999954   73484.12500
 -23.54000092   73497.46094
 -23.35000038   73504.25000
 -23.15999985   73508.32812
 -22.96999931   73512.41406
 -22.78000069   73524.11719
 -22.59000015   73539.32031
 -22.39999962   73562.14844
 -22.20999908   73589.71094
 -22.02000046   73617.95312
 -21.82999992   73644.06250
 -21.63999939   73663.17188
 -21.45000076   73672.84375
 -21.26000023   73674.78125
 -21.06999969   73672.72656
 -20.87999916   73670.94531
 -20.69000053   73671.42188
 -20.50000000   73680.00781
 -20.30999947   73692.65625
 -20.12000084   73707.83594
 -19.93000031   73725.64062
 -19.73999977   73741.89844
 -19.54999924   73752.67188
 -19.36000061   73760.36719
 -19.17000008   73761.60156
 -18.97999954   73759.06250
 -18.79000092   73754.49219
 -18.60000038   73750.42969
 -18.40999985   73752.23438
 -18.21999931   73760.46094
 -18.03000069   73774.35938
 -17.84000015   73790.00000
 -17.64999962   73806.66406
 -17.45999908   73821.21094
 -17.27000046   73831.58594
 -17.07999992   73837.83594
 -16.88999939   73838.31250
 -16.70000076   73838.94531
 -16.51000023   73839.09375
 -16.31999969   73842.98438
 -16.12999916   73857.10156
 -15.93999958   73877.64844
 -15.75000000   73902.93750
 -15.56000042   73926.08594
 -15.36999989   73945.19531
 -15.18000031   73960.71875
 -14.98999977   73972.72656
 -14.80000019   73981.55469
 -14.60999966   73991.82031
 -14.42000008   74004.06250
 -14.22999954   74021.27344
 -14.03999996   74043.82812
 -13.85000038   74069.46875
 -13.65999985   74098.36719
 -13.47000027   74124.96094
 -13.27999973   74147.51562
 -13.09000015   74165.67969
 -12.89999962   74183.28906
 -12.71000004   74200.63281
 -12.52000046   74222.89062
 -12.32999992   74246.25781
 -12.14000034   74274.24219
 -11.94999981   74302.53906
 -11.76000023   74329.64844
 -11.56999969   74353.96094
 -11.38000011   74374.83594
 -11.18999958   74392.77344
 -11.00000000   74409.74219
 -10.81000042   74426.42969
 -10.61999989   74446.81250
 -10.43000031   74464.53906
 -10.23999977   74485.75781
 -10.05000019   74511.48438
 -9.859999657   74536.35156
 -9.670000076   74556.70312
 -9.479999542   74576.83594
 -9.289999962   74590.73438
 -9.100000381   74605.75000
 -8.909999847   74618.50781
 -8.720000267   74630.04688
 -8.529999733   74638.50000
 -8.340000153   74649.21875
 -8.149999619   74661.35938
 -7.960000038   74676.91406
 -7.769999981   74697.32031
 -7.579999924   74717.89844
 -7.389999866   74739.82812
 -7.199999809   74757.21875
 -7.010000229   74770.11719
 -6.820000172   74778.39844
 -6.630000114   74783.61719
 -6.440000057   74784.25781
 -6.250000000   74784.53906
 -6.059999943   74786.82812
 -5.869999886   74791.23438
 -5.679999828   74798.24219
 -5.489999771   74807.57812
 -5.300000191   74816.67188
 -5.110000134   74822.27344
 -4.920000076   74819.82031
 -4.730000019   74814.96875
 -4.539999962   74807.22656
 -4.349999905   74802.08594
 -4.159999847   74800.52344
 -3.970000029   74804.41406
 -3.779999971   74812.80469
 -3.589999914   74819.60156
 -3.400000095   74823.95312
 -3.210000038   74825.60938
 -3.019999981   74822.80469
 -2.829999924   74819.26562
 -2.640000105   74814.17188
 -2.450000048   74814.17969
 -2.259999990   74820.26562
 -2.069999933   74831.32031
 -1.879999995   74848.52344
 -1.690000057   74863.45312
 -1.500000000   74875.03906
 -1.309999943   74880.53125
 -1.120000005   74878.91406
 -0.9300000072   74876.26562
 -0.7400000095   74872.10156
 -0.5500000119   74870.10156
 -0.3600000143   74870.13281
 -0.1700000018   74875.27344
 0.1999999955E-01   74882.31250
 0.2099999934   74893.49219
 0.4000000060   74902.39844
 0.5899999738   74914.50781
 0.7799999714   74922.52344
 0.9700000286   74928.77344
 1.159999967   74932.09375
 1.350000024   74932.42188
 1.539999962   74933.63281
 1.730000019   74933.04688
 1.919999957   74931.70312
 2.109999895   74933.74219
 2.299999952   74937.79688
 2.490000010   74946.81250
 2.680000067   74959.97656
 2.869999886   74975.82812
 3.059999943   74991.84375
 3.250000000   75007.25781
 3.440000057   75017.63281
 3.630000114   75029.52344
 3.819999933   75038.94531
 4.010000229   75050.72656
 4.199999809   75065.43750
 4.389999866   75084.65625
 4.579999924   75108.45312
 4.769999981   75138.46094
 4.960000038   75168.20312
 5.150000095   75195.12500
 5.340000153   75215.45312
 5.530000210   75227.99219
 5.719999790   75235.08594
 5.909999847   75241.52344
 6.099999905   75247.52344
 6.289999962   75258.33594
 6.480000019   75275.25000
 6.670000076   75296.98438
 6.860000134   75321.92188
 7.050000191   75346.69531
 7.239999771   75367.27344
 7.429999828   75381.85156
 7.619999886   75391.73438
 7.809999943   75396.60156
 8.000000000   75400.94531
 8.189999580   75407.57812
 8.380000114   75421.55469
 8.569999695   75439.57812
 8.760000229   75463.95312
 8.949999809   75488.53125
 9.140000343   75513.33594
 9.329999924   75534.77344
 9.520000458   75550.81250
 9.710000038   75564.28125
 9.899999619   75574.05469
 10.09000015   75581.82812
 10.27999973   75594.80469
 10.47000027   75610.54688
 10.65999985   75629.62500
 10.85000038   75650.63281
 11.03999996   75676.95312
 11.22999954   75704.77344
 11.42000008   75732.75000
 11.60999966   75759.58594
 11.80000019   75785.17188
 11.98999977   75803.43750
 12.18000031   75818.03906
 12.36999989   75825.86719
 12.56000042   75831.27344
 12.75000000   75839.99219
 12.93999958   75852.12500
 13.13000011   75869.57812
 13.31999969   75892.15625
 13.51000023   75918.69531
 13.69999981   75947.48438
 13.89000034   75973.34375
 14.07999992   75994.18750
 14.27000046   76008.87500
 14.46000004   76018.32031
 14.64999962   76028.23438
 14.84000015   76040.75000
 15.02999973   76059.60938
 15.22000027   76086.95312
 15.40999985   76122.28125
 15.60000038   76162.38281
 15.78999996   76200.56250
 15.97999954   76234.69531
 16.17000008   76258.81250
 16.36000061   76277.32812
 16.54999924   76286.28906
 16.73999977   76296.14062
 16.93000031   76305.56250
 17.12000084   76323.53125
 17.30999947   76348.62500
 17.50000000   76381.64844
 17.69000053   76415.75000
 17.87999916   76445.43750
 18.06999969   76472.21875
 18.26000023   76487.12500
 18.45000076   76495.95312
 18.63999939   76499.72656
 18.82999992   76501.96875
 19.02000046   76503.87500
 19.20999908   76511.64062
 19.39999962   76525.92188
 19.59000015   76546.40625
 19.78000069   76573.13281
 19.96999931   76601.57031
 20.15999985   76628.35156
 20.35000038   76652.07031
 20.54000092   76670.88281
 20.72999954   76682.44531
 20.92000008   76689.60938
 21.11000061   76694.09375
 21.29999924   76695.85156
 21.48999977   76700.49219
 21.68000031   76711.32812
 21.87000084   76730.11719
 22.05999947   76755.81250
 22.25000000   76785.46875
 22.44000053   76812.60156
 22.62999916   76834.36719
 22.81999969   76846.36719
 23.01000023   76850.42188
 23.20000076   76851.10938
 23.38999939   76850.14062
 23.57999992   76857.34375
 23.77000046   76872.03125
 23.95999908   76896.72656
 24.14999962   76926.90625
 24.34000015   76962.22656
 24.53000069   76990.14844
 24.71999931   77009.88281
 24.90999985   77019.57812
 25.10000038   77020.15625
 25.29000092   77020.89844
 25.47999954   77023.03125
 25.67000008   77034.73438
 25.86000061   77055.65625
 26.04999924   77087.83594
 26.23999977   77124.54688
 26.43000031   77164.39844
 26.62000084   77201.08594
 26.80999947   77232.64062
