 -30.   10104563.
 -29.8099995   10106648.
 -29.6200008   10108753.
 -29.4300003   10110866.
 -29.2399998   10112975.
 -29.0499992   10115073.
 -28.8600006   10117156.
 -28.6700001   10119225.
 -28.4799995   10121284.
 -28.2900009   10123342.
 -28.1000004   10125407.
 -27.9099998   10127486.
 -27.7199993   10129583.
 -27.5300007   10131687.
 -27.3400002   10133799.
 -27.1499996   10135905.
 -26.9599991   10138001.
 -26.7700005   10140079.
 -26.5799999   10142142.
 -26.3899994   10144194.
 -26.2000008   10146239.
 -26.0100002   10148287.
 -25.8199997   10150346.
 -25.6299992   10152418.
 -25.4400005   10154503.
 -25.25   10156595.
 -25.0599995   10158689.
 -24.8700008   10160777.
 -24.6800003   10162853.
 -24.4899998   10164917.
 -24.2999992   10166967.
 -24.1100006   10169007.
 -23.9200001   10171047.
 -23.7299995   10173090.
 -23.5400009   10175149.
 -23.3500004   10177216.
 -23.1599998   10179295.
 -22.9699993   10181381.
 -22.7800007   10183466.
 -22.5900002   10185544.
 -22.3999996   10187612.
 -22.2099991   10189667.
 -22.0200005   10191710.
 -21.8299999   10193751.
 -21.6399994   10195794.
 -21.4500008   10197845.
 -21.2600002   10199908.
 -21.0699997   10201983.
 -20.8799992   10204066.
 -20.6900005   10206151.
 -20.5   10208230.
 -20.3099995   10210295.
 -20.1200008   10212347.
 -19.9300003   10214389.
 -19.7399998   10216425.
 -19.5499992   10218460.
 -19.3600006   10220500.
 -19.1700001   10222549.
 -18.9799995   10224608.
 -18.7900009   10226674.
 -18.6000004   10228743.
 -18.4099998   10230808.
 -18.2199993   10232865.
 -18.0300007   10234911.
 -17.8400002   10236943.
 -17.6499996   10238969.
 -17.4599991   10240992.
 -17.2700005   10243018.
 -17.0799999   10245049.
 -16.8899994   10247092.
 -16.7000008   10249143.
 -16.5100002   10251200.
 -16.3199997   10253257.
 -16.1299992   10255314.
 -15.9399996   10257356.
 -15.75   10259386.
 -15.5600004   10261405.
 -15.3699999   10263413.
 -15.1800003   10265422.
 -14.9899998   10267433.
 -14.8000002   10269450.
 -14.6099997   10271476.
 -14.4200001   10273508.
 -14.2299995   10275541.
 -14.04   10277572.
 -13.8500004   10279596.
 -13.6599998   10281610.
 -13.4700003   10283612.
 -13.2799997   10285606.
 -13.0900002   10287599.
 -12.8999996   10289596.
 -12.71   10291598.
 -12.5200005   10293613.
 -12.3299999   10295634.
 -12.1400003   10297663.
 -11.9499998   10299693.
 -11.7600002   10301723.
 -11.5699997   10303746.
 -11.3800001   10305761.
 -11.1899996   10307764.
 -11.   10309761.
 -10.8100004   10311754.
 -10.6199999   10313748.
 -10.4300003   10315751.
 -10.2399998   10317760.
 -10.0500002   10319773.
 -9.85999966   10321793.
 -9.67000008   10323811.
 -9.47999954   10325821.
 -9.28999996   10327827.
 -9.10000038   10329818.
 -8.90999985   10331799.
 -8.72000027   10333769.
 -8.52999973   10335735.
 -8.34000015   10337708.
 -8.14999962   10339687.
 -7.96000004   10341679.
 -7.76999998   10343682.
 -7.57999992   10345690.
 -7.38999987   10347700.
 -7.19999981   10349701.
 -7.01000023   10351694.
 -6.82000017   10353676.
 -6.63000011   10355648.
 -6.44000006   10357613.
 -6.25   10359582.
 -6.05999994   10361560.
 -5.86999989   10363551.
 -5.67999983   10365555.
 -5.48999977   10367567.
 -5.30000019   10369581.
 -5.11000013   10371592.
 -4.92000008   10373590.
 -4.73000002   10375577.
 -4.53999996   10377551.
 -4.3499999   10379515.
 -4.15999985   10381477.
 -3.97000003   10383443.
 -3.77999997   10385418.
 -3.58999991   10387405.
 -3.4000001   10389404.
 -3.21000004   10391407.
 -3.01999998   10393407.
 -2.82999992   10395401.
 -2.6400001   10397381.
 -2.45000005   10399352.
 -2.25999999   10401311.
 -2.06999993   10403271.
 -1.88   10405227.
 -1.69000006   10407189.
 -1.5   10409159.
 -1.30999994   10411143.
 -1.12   10413138.
 -0.930000007   10415137.
 -0.74000001   10417136.
 -0.550000012   10419125.
 -0.360000014   10421106.
 -0.170000002   10423075.
 1.999999955E-2   10425038.
 0.209999993   10426997.
 0.400000006   10428958.
 0.589999974   10430929.
 0.779999971   10432908.
 0.970000029   10434901.
 1.15999997   10436899.
 1.35000002   10438898.
 1.53999996   10440886.
 1.73000002   10442861.
 1.91999996   10444818.
 2.1099999   10446762.
 2.29999995   10448702.
 2.49000001   10450645.
 2.68000007   10452594.
 2.86999989   10454552.
 3.05999994   10456522.
 3.25   10458499.
 3.44000006   10460480.
 3.63000011   10462456.
 3.81999993   10464425.
 4.01000023   10466377.
 4.19999981   10468319.
 4.38999987   10470254.
 4.57999992   10472190.
 4.76999998   10474132.
 4.96000004   10476085.
 5.1500001   10478050.
 5.34000015   10480025.
 5.53000021   10482008.
 5.71999979   10483991.
 5.90999985   10485968.
 6.0999999   10487935.
 6.28999996   10489889.
 6.48000002   10491828.
 6.67000008   10493760.
 6.86000013   10495693.
 7.05000019   10497632.
 7.23999977   10499581.
 7.42999983   10501544.
 7.61999989   10503515.
 7.80999994   10505491.
 8.   10507463.
 8.18999958   10509428.
 8.38000011   10511378.
 8.56999969   10513310.
 8.76000023   10515231.
 8.94999981   10517148.
 9.14000034   10519069.
 9.32999992   10520999.
 9.52000046   10522941.
 9.71000004   10524899.
 9.89999962   10526868.
 10.0900002   10528837.
 10.2799997   10530800.
 10.4700003   10532754.
 10.6599998   10534698.
 10.8500004   10536627.
 11.04   10538549.
 11.2299995   10540476.
 11.4200001   10542408.
 11.6099997   10544351.
 11.8000002   10546308.
 11.9899998   10548273.
 12.1800003   10550245.
 12.3699999   10552212.
 12.5600004   10554165.
 12.75   10556107.
 12.9399996   10558034.
 13.1300001   10559948.
 13.3199997   10561850.
 13.5100002   10563751.
 13.6999998   10565658.
 13.8900003   10567575.
 14.0799999   10569504.
 14.2700005   10571445.
 14.46   10573388.
 14.6499996   10575327.
 14.8400002   10577256.
 15.0299997   10579170.
 15.2200003   10581071.
 15.4099998   10582961.
 15.6000004   10584846.
 15.79   10586739.
 15.9799995   10588644.
 16.1700001   10590563.
 16.3600006   10592499.
 16.5499992   10594445.
 16.7399998   10596395.
 16.9300003   10598334.
 17.1200008   10600264.
 17.3099995   10602179.
 17.5   10604084.
 17.6900005   10605983.
 17.8799992   10607887.
 18.0699997   10609800.
 18.2600002   10611725.
 18.4500008   10613662.
 18.6399994   10615606.
 18.8299999   10617550.
 19.0200005   10619484.
 19.2099991   10621402.
 19.3999996   10623304.
 19.5900002   10625188.
 19.7800007   10627063.
 19.9699993   10628938.
 20.1599998   10630819.
 20.3500004   10632715.
 20.5400009   10634629.
 20.7299995   10636551.
 20.9200001   10638479.
 21.1100006   10640404.
 21.2999992   10642315.
 21.4899998   10644209.
 21.6800003   10646087.
 21.8700008   10647951.
 22.0599995   10649815.
 22.25   10651686.
 22.4400005   10653575.
 22.6299992   10655478.
 22.8199997   10657395.
 23.0100002   10659320.
 23.2000008   10661242.
 23.3899994   10663152.
 23.5799999   10665043.
 23.7700005   10666916.
 23.9599991   10668776.
 24.1499996   10670629.
 24.3400002   10672483.
 24.5300007   10674353.
 24.7199993   10676238.
 24.9099998   10678138.
 25.1000004   10680050.
 25.2900009   10681961.
 25.4799995   10683861.
 25.6700001   10685749.
 25.8600006   10687620.
 26.0499992   10689477.
 26.2399998   10691328.
 26.4300003   10693178.
 26.6200008   10695039.
 26.8099995   10696912.
