 -30.   2609031.75
 -29.8099995   2609584.
 -29.6200008   2610148.
 -29.4300003   2610721.25
 -29.2399998   2611291.5
 -29.0499992   2611853.75
 -28.8600006   2612404.
 -28.6700001   2612941.
 -28.4799995   2613471.5
 -28.2900009   2614005.
 -28.1000004   2614543.
 -27.9099998   2615093.5
 -27.7199993   2615655.
 -27.5300007   2616224.75
 -27.3400002   2616800.25
 -27.1499996   2617374.
 -26.9599991   2617938.75
 -26.7700005   2618494.25
 -26.5799999   2619038.25
 -26.3899994   2619572.75
 -26.2000008   2620101.75
 -26.0100002   2620633.75
 -25.8199997   2621173.5
 -25.6299992   2621723.
 -25.4400005   2622281.75
 -25.25   2622848.
 -25.0599995   2623417.
 -24.8700008   2623985.5
 -24.6800003   2624545.75
 -24.4899998   2625094.
 -24.2999992   2625630.75
 -24.1100006   2626157.25
 -23.9200001   2626682.75
 -23.7299995   2627211.25
 -23.5400009   2627747.25
 -23.3500004   2628296.
 -23.1599998   2628853.5
 -22.9699993   2629416.
 -22.7800007   2629977.25
 -22.5900002   2630530.75
 -22.3999996   2631073.
 -22.2099991   2631598.75
 -22.0200005   2632113.5
 -21.8299999   2632620.
 -21.6399994   2633127.75
 -21.4500008   2633641.75
 -21.2600002   2634168.
 -21.0699997   2634705.25
 -20.8799992   2635250.
 -20.6900005   2635799.25
 -20.5   2636347.75
 -20.3099995   2636886.25
 -20.1200008   2637416.75
 -19.9300003   2637938.75
 -19.7399998   2638452.75
 -19.5499992   2638966.75
 -19.3600006   2639485.5
 -19.1700001   2640012.75
 -18.9799995   2640552.
 -18.7900009   2641101.25
 -18.6000004   2641659.
 -18.4099998   2642218.25
 -18.2199993   2642774.25
 -18.0300007   2643320.25
 -17.8400002   2643857.
 -17.6499996   2644382.
 -17.4599991   2644898.25
 -17.2700005   2645414.
 -17.0799999   2645934.75
 -16.8899994   2646465.25
 -16.7000008   2647005.75
 -16.5100002   2647556.25
 -16.3199997   2648111.5
 -16.1299992   2648667.75
 -15.9399996   2649218.
 -15.75   2649759.
 -15.5600004   2650290.75
 -15.3699999   2650815.
 -15.1800003   2651336.5
 -14.9899998   2651860.25
 -14.8000002   2652390.5
 -14.6099997   2652931.25
 -14.4200001   2653478.5
 -14.2299995   2654025.25
 -14.04   2654568.5
 -13.8500004   2655100.25
 -13.6599998   2655617.75
 -13.4700003   2656127.
 -13.2799997   2656629.
 -13.0900002   2657128.5
 -12.8999996   2657633.
 -12.71   2658149.5
 -12.5200005   2658679.25
 -12.3299999   2659219.25
 -12.1400003   2659763.25
 -11.9499998   2660305.25
 -11.7600002   2660842.25
 -11.5699997   2661369.5
 -11.3800001   2661889.25
 -11.1899996   2662402.75
 -11.   2662918.5
 -10.8100004   2663436.25
 -10.6199999   2663962.
 -10.4300003   2664496.5
 -10.2399998   2665037.
 -10.0500002   2665579.5
 -9.85999966   2666118.5
 -9.67000008   2666648.75
 -9.47999954   2667169.5
 -9.28999996   2667683.
 -9.10000038   2668193.
 -8.90999985   2668702.
 -8.72000027   2669217.25
 -8.52999973   2669740.75
 -8.34000015   2670274.
 -8.14999962   2670815.
 -7.96000004   2671360.25
 -7.76999998   2671902.5
 -7.57999992   2672439.75
 -7.38999987   2672969.
 -7.19999981   2673489.
 -7.01000023   2674007.5
 -6.82000017   2674524.25
 -6.63000011   2675044.5
 -6.44000006   2675569.75
 -6.25   2676100.75
 -6.05999994   2676635.5
 -5.86999989   2677176.25
 -5.67999983   2677718.
 -5.48999977   2678257.75
 -5.30000019   2678793.75
 -5.11000013   2679324.25
 -4.92000008   2679849.75
 -4.73000002   2680368.
 -4.53999996   2680881.75
 -4.3499999   2681394.25
 -4.15999985   2681905.75
 -3.97000003   2682418.75
 -3.77999997   2682936.75
 -3.58999991   2683460.75
 -3.4000001   2683987.5
 -3.21000004   2684516.25
 -3.01999998   2685043.
 -2.82999992   2685565.25
 -2.6400001   2686077.
 -2.45000005   2686580.75
 -2.25999999   2687083.75
 -2.06999993   2687588.
 -1.88   2688099.75
 -1.69000006   2688619.
 -1.5   2689149.5
 -1.30999994   2689687.25
 -1.12   2690228.
 -0.930000007   2690766.25
 -0.74000001   2691296.
 -0.550000012   2691816.75
 -0.360000014   2692326.75
 -0.170000002   2692830.5
 1.999999955E-2   2693334.75
 0.209999993   2693843.5
 0.400000006   2694360.5
 0.589999974   2694888.5
 0.779999971   2695421.
 0.970000029   2695960.75
 1.15999997   2696500.5
 1.35000002   2697034.75
 1.53999996   2697562.5
 1.73000002   2698080.25
 1.91999996   2698591.75
 2.1099999   2699096.5
 2.29999995   2699600.75
 2.49000001   2700108.5
 2.68000007   2700622.
 2.86999989   2701141.25
 3.05999994   2701666.5
 3.25   2702191.5
 3.44000006   2702713.5
 3.63000011   2703235.
 3.81999993   2703751.25
 4.01000023   2704264.75
 4.19999981   2704776.25
 4.38999987   2705285.25
 4.57999992   2705800.
 4.76999998   2706321.75
 4.96000004   2706846.25
 5.1500001   2707375.
 5.34000015   2707904.75
 5.53000021   2708428.5
 5.71999979   2708950.75
 5.90999985   2709469.75
 6.0999999   2709985.5
 6.28999996   2710501.25
 6.48000002   2711017.25
 6.67000008   2711533.
 6.86000013   2712054.75
 7.05000019   2712577.5
 7.23999977   2713103.75
 7.42999983   2713632.25
 7.61999989   2714159.25
 7.80999994   2714685.5
 8.   2715210.
 8.18999958   2715730.25
 8.38000011   2716249.
 8.56999969   2716765.5
 8.76000023   2717276.75
 8.94999981   2717785.5
 9.14000034   2718297.
 9.32999992   2718815.25
 9.52000046   2719338.75
 9.71000004   2719871.5
 9.89999962   2720408.75
 10.0900002   2720945.75
 10.2799997   2721481.25
 10.4700003   2722008.75
 10.6599998   2722533.5
 10.8500004   2723053.5
 11.04   2723566.75
 11.2299995   2724083.5
 11.4200001   2724602.5
 11.6099997   2725129.
 11.8000002   2725662.75
 11.9899998   2726198.75
 12.1800003   2726736.
 12.3699999   2727270.75
 12.5600004   2727793.5
 12.75   2728310.
 12.9399996   2728819.75
 13.1300001   2729325.
 13.3199997   2729830.25
 13.5100002   2730340.
 13.6999998   2730857.25
 13.8900003   2731383.25
 14.0799999   2731919.
 14.2700005   2732455.
 14.46   2732988.
 14.6499996   2733509.5
 14.8400002   2734018.25
 15.0299997   2734516.75
 15.2200003   2735010.25
 15.4099998   2735503.75
 15.6000004   2736003.75
 15.79   2736511.5
 15.9799995   2737029.75
 16.1700001   2737558.25
 16.3600006   2738092.5
 16.5499992   2738625.5
 16.7399998   2739151.
 16.9300003   2739667.5
 17.1200008   2740175.5
 17.3099995   2740673.75
 17.5   2741172.5
 17.6900005   2741676.
 17.8799992   2742187.5
 18.0699997   2742707.75
 18.2600002   2743234.25
 18.4500008   2743764.25
 18.6399994   2744294.
 18.8299999   2744822.5
 19.0200005   2745345.25
 19.2099991   2745862.25
 19.3999996   2746375.
 19.5900002   2746883.75
 19.7800007   2747392.5
 19.9699993   2747908.5
 20.1599998   2748426.
 20.3500004   2748949.5
 20.5400009   2749473.5
 20.7299995   2749996.5
 20.9200001   2750515.75
 21.1100006   2751035.25
 21.2999992   2751551.5
 21.4899998   2752063.25
 21.6800003   2752568.5
 21.8700008   2753067.25
 22.0599995   2753562.
 22.25   2754060.
 22.4400005   2754556.25
 22.6299992   2755058.25
 22.8199997   2755560.75
 23.0100002   2756069.
 23.2000008   2756580.5
 23.3899994   2757097.75
 23.5799999   2757616.
 23.7700005   2758135.5
 23.9599991   2758648.5
 24.1499996   2759159.25
 24.3400002   2759668.5
 24.5300007   2760179.25
 24.7199993   2760692.
 24.9099998   2761208.75
 25.1000004   2761729.
 25.2900009   2762249.5
 25.4799995   2762771.25
 25.6700001   2763294.
 25.8600006   2763815.25
 26.0499992   2764331.5
 26.2399998   2764840.25
 26.4300003   2765344.
 26.6200008   2765849.25
 26.8099995   2766355.25
