 -30.   -3592971.75
 -29.8099995   -3593627.5
 -29.6200008   -3594265.5
 -29.4300003   -3594945.75
 -29.2399998   -3595682.
 -29.0499992   -3596420.5
 -28.8600006   -3597105.75
 -28.6700001   -3597730.
 -28.4799995   -3598345.25
 -28.2900009   -3599018.
 -28.1000004   -3599755.5
 -27.9099998   -3600509.
 -27.7199993   -3601214.5
 -27.5300007   -3601857.25
 -27.3400002   -3602479.75
 -27.1499996   -3603145.
 -26.9599991   -3603877.25
 -26.7700005   -3604633.25
 -26.5799999   -3605351.75
 -26.3899994   -3606002.5
 -26.2000008   -3606624.25
 -26.0100002   -3607281.5
 -25.8199997   -3608004.5
 -25.6299992   -3608764.
 -25.4400005   -3609494.
 -25.25   -3610159.25
 -25.0599995   -3610793.5
 -24.8700008   -3611456.75
 -24.6800003   -3612186.
 -24.4899998   -3612958.
 -24.2999992   -3613708.
 -24.1100006   -3614396.75
 -23.9200001   -3615043.
 -23.7299995   -3615707.
 -23.5400009   -3616434.
 -23.3500004   -3617209.25
 -23.1599998   -3617970.5
 -22.9699993   -3618670.75
 -22.7800007   -3619322.
 -22.5900002   -3619983.25
 -22.3999996   -3620699.
 -22.2099991   -3621468.
 -22.0200005   -3622235.75
 -21.8299999   -3622947.75
 -21.6399994   -3623611.5
 -21.4500008   -3624276.25
 -21.2600002   -3624997.75
 -21.0699997   -3625777.25
 -20.8799992   -3626565.5
 -20.6900005   -3627297.25
 -20.5   -3627970.75
 -20.3099995   -3628627.25
 -20.1200008   -3629328.5
 -19.9300003   -3630086.25
 -19.7399998   -3630857.
 -19.5499992   -3631584.
 -19.3600006   -3632253.
 -19.1700001   -3632907.25
 -18.9799995   -3633603.75
 -18.7900009   -3634368.25
 -18.6000004   -3635157.25
 -18.4099998   -3635913.
 -18.2199993   -3636609.
 -18.0300007   -3637278.
 -17.8400002   -3637978.25
 -17.6499996   -3638743.5
 -17.4599991   -3639532.5
 -17.2700005   -3640288.
 -17.0799999   -3640982.75
 -16.8899994   -3641640.5
 -16.7000008   -3642321.5
 -16.5100002   -3643059.
 -16.3199997   -3643834.25
 -16.1299992   -3644589.75
 -15.9399996   -3645290.
 -15.75   -3645955.25
 -15.5600004   -3646635.
 -15.3699999   -3647374.25
 -15.1800003   -3648154.25
 -14.9899998   -3648922.75
 -14.8000002   -3649638.25
 -14.6099997   -3650306.
 -14.4200001   -3650976.5
 -14.2299995   -3651695.75
 -14.04   -3652457.5
 -13.8500004   -3653220.5
 -13.6599998   -3653937.25
 -13.4700003   -3654605.75
 -13.2799997   -3655267.25
 -13.0900002   -3655969.25
 -12.8999996   -3656720.
 -12.71   -3657478.
 -12.5200005   -3658196.5
 -12.3299999   -3658862.5
 -12.1400003   -3659516.
 -11.9499998   -3660207.75
 -11.7600002   -3660950.5
 -11.5699997   -3661715.25
 -11.3800001   -3662447.75
 -11.1899996   -3663129.
 -11.   -3663787.75
 -10.8100004   -3664474.75
 -10.6199999   -3665207.25
 -10.4300003   -3665970.5
 -10.2399998   -3666711.5
 -10.0500002   -3667404.75
 -9.85999966   -3668068.75
 -9.67000008   -3668750.75
 -9.47999954   -3669485.
 -9.28999996   -3670255.5
 -9.10000038   -3671020.
 -8.90999985   -3671738.5
 -8.72000027   -3672421.25
 -8.52999973   -3673117.25
 -8.34000015   -3673860.
 -8.14999962   -3674642.75
 -7.96000004   -3675418.25
 -7.76999998   -3676140.
 -7.57999992   -3676815.5
 -7.38999987   -3677484.75
 -7.19999981   -3678197.75
 -7.01000023   -3678957.
 -6.82000017   -3679724.75
 -6.63000011   -3680452.5
 -6.44000006   -3681137.
 -6.25   -3681815.25
 -6.05999994   -3682536.75
 -5.86999989   -3683313.
 -5.67999983   -3684106.75
 -5.48999977   -3684864.25
 -5.30000019   -3685569.
 -5.11000013   -3686253.75
 -4.92000008   -3686967.5
 -4.73000002   -3687734.75
 -4.53999996   -3688522.25
 -4.3499999   -3689275.75
 -4.15999985   -3689969.75
 -3.97000003   -3690632.5
 -3.77999997   -3691320.5
 -3.58999991   -3692061.5
 -3.4000001   -3692831.5
 -3.21000004   -3693575.75
 -3.01999998   -3694266.25
 -2.82999992   -3694923.25
 -2.6400001   -3695603.75
 -2.45000005   -3696345.25
 -2.25999999   -3697132.5
 -2.06999993   -3697906.5
 -1.88   -3698631.
 -1.69000006   -3699318.25
 -1.5   -3700017.75
 -1.30999994   -3700772.
 -1.12   -3701570.25
 -0.930000007   -3702359.25
 -0.74000001   -3703096.
 -0.550000012   -3703786.25
 -0.360000014   -3704482.5
 -0.170000002   -3705231.75
 1.999999955E-2   -3706030.5
 0.209999993   -3706830.75
 0.400000006   -3707581.75
 0.589999974   -3708283.25
 0.779999971   -3708986.5
 0.970000029   -3709736.5
 1.15999997   -3710536.25
 1.35000002   -3711342.5
 1.53999996   -3712102.75
 1.73000002   -3712804.75
 1.91999996   -3713493.25
 2.1099999   -3714216.
 2.29999995   -3714987.5
 2.49000001   -3715768.75
 2.68000007   -3716505.5
 2.86999989   -3717183.5
 3.05999994   -3717843.5
 3.25   -3718540.75
 3.44000006   -3719297.25
 3.63000011   -3720080.25
 3.81999993   -3720836.
 4.01000023   -3721540.75
 4.19999981   -3722222.75
 4.38999987   -3722935.25
 4.57999992   -3723703.5
 4.76999998   -3724497.
 4.96000004   -3725263.
 5.1500001   -3725973.5
 5.34000015   -3726654.75
 5.53000021   -3727353.75
 5.71999979   -3728106.5
 5.90999985   -3728892.25
 6.0999999   -3729662.25
 6.28999996   -3730382.
 6.48000002   -3731065.5
 6.67000008   -3731762.25
 6.86000013   -3732511.
 7.05000019   -3733302.
 7.23999977   -3734086.75
 7.42999983   -3734824.75
 7.61999989   -3735521.25
 7.80999994   -3736222.75
 8.   -3736972.
 8.18999958   -3737766.
 8.38000011   -3738561.25
 8.56999969   -3739309.5
 8.76000023   -3740008.75
 8.94999981   -3740698.75
 9.14000034   -3741425.25
 9.32999992   -3742196.5
 9.52000046   -3742974.
 9.71000004   -3743711.5
 9.89999962   -3744401.5
 10.0900002   -3745076.25
 10.2799997   -3745788.
 10.4700003   -3746550.25
 10.6599998   -3747335.5
 10.8500004   -3748098.
 11.04   -3748812.25
 11.2299995   -3749505.
 11.4200001   -3750221.75
 11.6099997   -3750986.
 11.8000002   -3751774.25
 11.9899998   -3752545.
 12.1800003   -3753263.5
 12.3699999   -3753950.5
 12.5600004   -3754652.
 12.75   -3755401.5
 12.9399996   -3756182.25
 13.1300001   -3756953.5
 13.3199997   -3757681.
 13.5100002   -3758373.
 13.6999998   -3759074.
 13.8900003   -3759820.5
 14.0799999   -3760607.75
 14.2700005   -3761393.
 14.46   -3762136.5
 14.6499996   -3762837.5
 14.8400002   -3763534.75
 15.0299997   -3764273.
 15.2200003   -3765050.25
 15.4099998   -3765832.
 15.6000004   -3766576.5
 15.79   -3767275.25
 15.9799995   -3767965.75
 16.1700001   -3768694.
 16.3600006   -3769474.
 16.5499992   -3770271.
 16.7399998   -3771039.75
 16.9300003   -3771762.
 17.1200008   -3772466.75
 17.3099995   -3773203.5
 17.5   -3773986.
 17.6900005   -3774782.75
 17.8799992   -3775550.5
 18.0699997   -3776262.25
 18.2600002   -3776947.75
 18.4500008   -3777655.5
 18.6399994   -3778417.75
 18.8299999   -3779209.75
 19.0200005   -3779980.25
 19.2099991   -3780703.75
 19.3999996   -3781399.
 19.5900002   -3782120.
 19.7800007   -3782896.25
 19.9699993   -3783707.
 20.1599998   -3784508.
 20.3500004   -3785258.75
 20.5400009   -3785973.
 20.7299995   -3786698.75
 20.9200001   -3787470.75
 21.1100006   -3788280.75
 21.2999992   -3789080.
 21.4899998   -3789827.75
 21.6800003   -3790530.75
 21.8700008   -3791234.
 22.0599995   -3791980.75
 22.25   -3792771.
 22.4400005   -3793560.25
 22.6299992   -3794303.75
 22.8199997   -3795003.5
 23.0100002   -3795702.
 23.2000008   -3796447.
 23.3899994   -3797241.5
 23.5799999   -3798048.25
 23.7700005   -3798820.
 23.9599991   -3799544.5
 24.1499996   -3800261.5
 24.3400002   -3801008.
 24.5300007   -3801802.5
 24.7199993   -3802612.
 24.9099998   -3803392.
 25.1000004   -3804121.25
 25.2900009   -3804831.75
 25.4799995   -3805571.
 25.6700001   -3806365.
 25.8600006   -3807186.5
 26.0499992   -3807985.5
 26.2399998   -3808732.75
 26.4300003   -3809452.
 26.6200008   -3810191.
 26.8099995   -3810978.25
