 -30.   10088756.
 -29.8099995   10090829.
 -29.6200008   10092906.
 -29.4300003   10094975.
 -29.2399998   10097033.
 -29.0499992   10099092.
 -28.8600006   10101163.
 -28.6700001   10103244.
 -28.4799995   10105329.
 -28.2900009   10107401.
 -28.1000004   10109465.
 -27.9099998   10111523.
 -27.7199993   10113585.
 -27.5300007   10115656.
 -27.3400002   10117727.
 -27.1499996   10119790.
 -26.9599991   10121842.
 -26.7700005   10123896.
 -26.5799999   10125964.
 -26.3899994   10128053.
 -26.2000008   10130152.
 -26.0100002   10132245.
 -25.8199997   10134319.
 -25.6299992   10136381.
 -25.4400005   10138440.
 -25.25   10140509.
 -25.0599995   10142581.
 -24.8700008   10144652.
 -24.6800003   10146715.
 -24.4899998   10148779.
 -24.2999992   10150850.
 -24.1100006   10152934.
 -23.9200001   10155022.
 -23.7299995   10157105.
 -23.5400009   10159171.
 -23.3500004   10161224.
 -23.1599998   10163277.
 -22.9699993   10165339.
 -22.7800007   10167414.
 -22.5900002   10169493.
 -22.3999996   10171566.
 -22.2099991   10173627.
 -22.0200005   10175685.
 -21.8299999   10177751.
 -21.6399994   10179828.
 -21.4500008   10181905.
 -21.2600002   10183972.
 -21.0699997   10186027.
 -20.8799992   10188076.
 -20.6900005   10190132.
 -20.5   10192204.
 -20.3099995   10194286.
 -20.1200008   10196362.
 -19.9300003   10198430.
 -19.7399998   10200492.
 -19.5499992   10202560.
 -19.3600006   10204635.
 -19.1700001   10206716.
 -18.9799995   10208787.
 -18.7900009   10210846.
 -18.6000004   10212901.
 -18.4099998   10214965.
 -18.2199993   10217045.
 -18.0300007   10219134.
 -17.8400002   10221219.
 -17.6499996   10223293.
 -17.4599991   10225356.
 -17.2700005   10227423.
 -17.0799999   10229501.
 -16.8899994   10231592.
 -16.7000008   10233679.
 -16.5100002   10235758.
 -16.3199997   10237832.
 -16.1299992   10239910.
 -15.9399996   10242002.
 -15.75   10244106.
 -15.5600004   10246207.
 -15.3699999   10248294.
 -15.1800003   10250368.
 -14.9899998   10252441.
 -14.8000002   10254525.
 -14.6099997   10256617.
 -14.4200001   10258709.
 -14.2299995   10260785.
 -14.04   10262845.
 -13.8500004   10264904.
 -13.6599998   10266975.
 -13.4700003   10269055.
 -13.2799997   10271136.
 -13.0900002   10273203.
 -12.8999996   10275254.
 -12.71   10277304.
 -12.5200005   10279368.
 -12.3299999   10281448.
 -12.1400003   10283530.
 -11.9499998   10285603.
 -11.7600002   10287661.
 -11.5699997   10289713.
 -11.3800001   10291779.
 -11.1899996   10293858.
 -11.   10295943.
 -10.8100004   10298020.
 -10.6199999   10300081.
 -10.4300003   10302141.
 -10.2399998   10304209.
 -10.0500002   10306288.
 -9.85999966   10308368.
 -9.67000008   10310437.
 -9.47999954   10312492.
 -9.28999996   10314545.
 -9.10000038   10316610.
 -8.90999985   10318694.
 -8.72000027   10320788.
 -8.52999973   10322882.
 -8.34000015   10324965.
 -8.14999962   10327043.
 -7.96000004   10329128.
 -7.76999998   10331224.
 -7.57999992   10333327.
 -7.38999987   10335423.
 -7.19999981   10337502.
 -7.01000023   10339575.
 -6.82000017   10341653.
 -6.63000011   10343748.
 -6.44000006   10345855.
 -6.25   10347969.
 -6.05999994   10350073.
 -5.86999989   10352164.
 -5.67999983   10354248.
 -5.48999977   10356328.
 -5.30000019   10358403.
 -5.11000013   10360472.
 -4.92000008   10362530.
 -4.73000002   10364581.
 -4.53999996   10366632.
 -4.3499999   10368693.
 -4.15999985   10370764.
 -3.97000003   10372834.
 -3.77999997   10374898.
 -3.58999991   10376962.
 -3.4000001   10379027.
 -3.21000004   10381105.
 -3.01999998   10383196.
 -2.82999992   10385289.
 -2.6400001   10387381.
 -2.45000005   10389468.
 -2.25999999   10391559.
 -2.06999993   10393661.
 -1.88   10395769.
 -1.69000006   10397879.
 -1.5   10399977.
 -1.30999994   10402064.
 -1.12   10404145.
 -0.930000007   10406232.
 -0.74000001   10408325.
 -0.550000012   10410420.
 -0.360000014   10412513.
 -0.170000002   10414596.
 1.999999955E-2   10416678.
 0.209999993   10418765.
 0.400000006   10420856.
 0.589999974   10422951.
 0.779999971   10425036.
 0.970000029   10427109.
 1.15999997   10429182.
 1.35000002   10431260.
 1.53999996   10433348.
 1.73000002   10435442.
 1.91999996   10437538.
 2.1099999   10439629.
 2.29999995   10441724.
 2.49000001   10443821.
 2.68000007   10445921.
 2.86999989   10448021.
 3.05999994   10450108.
 3.25   10452186.
 3.44000006   10454259.
 3.63000011   10456335.
 3.81999993   10458417.
 4.01000023   10460497.
 4.19999981   10462572.
 4.38999987   10464640.
 4.57999992   10466711.
 4.76999998   10468786.
 4.96000004   10470864.
 5.1500001   10472936.
 5.34000015   10474999.
 5.53000021   10477057.
 5.71999979   10479122.
 5.90999985   10481199.
 6.0999999   10483291.
 6.28999996   10485381.
 6.48000002   10487464.
 6.67000008   10489539.
 6.86000013   10491613.
 7.05000019   10493695.
 7.23999977   10495783.
 7.42999983   10497869.
 7.61999989   10499944.
 7.80999994   10502014.
 8.   10504083.
 8.18999958   10506165.
 8.38000011   10508251.
 8.56999969   10510337.
 8.76000023   10512410.
 8.94999981   10514474.
 9.14000034   10516537.
 9.32999992   10518614.
 9.52000046   10520702.
 9.71000004   10522795.
 9.89999962   10524874.
 10.0900002   10526945.
 10.2799997   10529012.
 10.4700003   10531087.
 10.6599998   10533169.
 10.8500004   10535253.
 11.04   10537329.
 11.2299995   10539396.
 11.4200001   10541464.
 11.6099997   10543540.
 11.8000002   10545629.
 11.9899998   10547722.
 12.1800003   10549807.
 12.3699999   10551875.
 12.5600004   10553940.
 12.75   10556013.
 12.9399996   10558099.
 13.1300001   10560192.
 13.3199997   10562280.
 13.5100002   10564354.
 13.6999998   10566422.
 13.8900003   10568494.
 14.0799999   10570577.
 14.2700005   10572665.
 14.46   10574743.
 14.6499996   10576808.
 14.8400002   10578866.
 15.0299997   10580935.
 15.2200003   10583024.
 15.4099998   10585129.
 15.6000004   10587228.
 15.79   10589314.
 15.9799995   10591385.
 16.1700001   10593464.
 16.3600006   10595554.
 16.5499992   10597651.
 16.7399998   10599737.
 16.9300003   10601804.
 17.1200008   10603865.
 17.3099995   10605935.
 17.5   10608025.
 17.6900005   10610128.
 17.8799992   10612220.
 18.0699997   10614291.
 18.2600002   10616349.
 18.4500008   10618411.
 18.6399994   10620488.
 18.8299999   10622574.
 19.0200005   10624649.
 19.2099991   10626704.
 19.3999996   10628751.
 19.5900002   10630814.
 19.7800007   10632910.
 19.9699993   10635027.
 20.1599998   10637141.
 20.3500004   10639233.
 20.5400009   10641303.
 20.7299995   10643371.
 20.9200001   10645455.
 21.1100006   10647549.
 21.2999992   10649635.
 21.4899998   10651702.
 21.6800003   10653752.
 21.8700008   10655810.
 22.0599995   10657892.
 22.25   10659998.
 22.4400005   10662104.
 22.6299992   10664193.
 22.8199997   10666262.
 23.0100002   10668334.
 23.2000008   10670419.
 23.3899994   10672523.
 23.5799999   10674630.
 23.7700005   10676718.
 23.9599991   10678787.
 24.1499996   10680852.
 24.3400002   10682928.
 24.5300007   10685025.
 24.7199993   10687127.
 24.9099998   10689217.
 25.1000004   10691284.
 25.2900009   10693345.
 25.4799995   10695416.
 25.6700001   10697511.
 25.8600006   10699614.
 26.0499992   10701710.
 26.2399998   10703792.
 26.4300003   10705863.
 26.6200008   10707939.
 26.8099995   10710032.
