 -30.   -4436798.5
 -29.8099995   -4437689.
 -29.6200008   -4438565.5
 -29.4300003   -4439444.5
 -29.2399998   -4440332.
 -29.0499992   -4441232.5
 -28.8600006   -4442146.5
 -28.6700001   -4443067.
 -28.4799995   -4443986.5
 -28.2900009   -4444901.5
 -28.1000004   -4445809.
 -27.9099998   -4446713.
 -27.7199993   -4447621.5
 -27.5300007   -4448544.5
 -27.3400002   -4449480.
 -27.1499996   -4450429.5
 -26.9599991   -4451389.5
 -26.7700005   -4452346.
 -26.5799999   -4453291.
 -26.3899994   -4454214.
 -26.2000008   -4455117.5
 -26.0100002   -4456005.5
 -25.8199997   -4456889.
 -25.6299992   -4457780.5
 -25.4400005   -4458689.
 -25.25   -4459614.
 -25.0599995   -4460555.
 -24.8700008   -4461502.5
 -24.6800003   -4462442.
 -24.4899998   -4463364.
 -24.2999992   -4464262.5
 -24.1100006   -4465139.
 -23.9200001   -4466003.
 -23.7299995   -4466871.5
 -23.5400009   -4467758.
 -23.3500004   -4468670.
 -23.1599998   -4469611.
 -22.9699993   -4470571.
 -22.7800007   -4471536.5
 -22.5900002   -4472490.
 -22.3999996   -4473422.5
 -22.2099991   -4474328.
 -22.0200005   -4475212.5
 -21.8299999   -4476084.
 -21.6399994   -4476961.
 -21.4500008   -4477856.
 -21.2600002   -4478774.
 -21.0699997   -4479712.5
 -20.8799992   -4480659.5
 -20.6900005   -4481603.5
 -20.5   -4482532.5
 -20.3099995   -4483435.
 -20.1200008   -4484311.5
 -19.9300003   -4485168.5
 -19.7399998   -4486015.
 -19.5499992   -4486864.5
 -19.3600006   -4487727.5
 -19.1700001   -4488615.
 -18.9799995   -4489524.5
 -18.7900009   -4490447.
 -18.6000004   -4491370.5
 -18.4099998   -4492281.5
 -18.2199993   -4493170.5
 -18.0300007   -4494033.5
 -17.8400002   -4494880.
 -17.6499996   -4495720.5
 -17.4599991   -4496566.5
 -17.2700005   -4497433.5
 -17.0799999   -4498327.
 -16.8899994   -4499246.
 -16.7000008   -4500180.5
 -16.5100002   -4501118.5
 -16.3199997   -4502045.
 -16.1299992   -4502952.
 -15.9399996   -4503840.
 -15.75   -4504713.5
 -15.5600004   -4505581.
 -15.3699999   -4506454.
 -15.1800003   -4507337.5
 -14.9899998   -4508242.
 -14.8000002   -4509159.5
 -14.6099997   -4510089.5
 -14.4200001   -4511022.5
 -14.2299995   -4511949.5
 -14.04   -4512866.5
 -13.8500004   -4513767.5
 -13.6599998   -4514654.5
 -13.4700003   -4515530.
 -13.2799997   -4516403.
 -13.0900002   -4517278.
 -12.8999996   -4518160.5
 -12.71   -4519051.5
 -12.5200005   -4519950.
 -12.3299999   -4520851.
 -12.1400003   -4521750.
 -11.9499998   -4522642.
 -11.7600002   -4523528.
 -11.5699997   -4524406.5
 -11.3800001   -4525284.
 -11.1899996   -4526164.
 -11.   -4527051.5
 -10.8100004   -4527946.5
 -10.6199999   -4528846.
 -10.4300003   -4529747.
 -10.2399998   -4530645.5
 -10.0500002   -4531541.
 -9.85999966   -4532433.
 -9.67000008   -4533321.5
 -9.47999954   -4534208.5
 -9.28999996   -4535093.5
 -9.10000038   -4535979.5
 -8.90999985   -4536863.5
 -8.72000027   -4537745.5
 -8.52999973   -4538622.5
 -8.34000015   -4539499.
 -8.14999962   -4540370.5
 -7.96000004   -4541245.
 -7.76999998   -4542122.5
 -7.57999992   -4543003.5
 -7.38999987   -4543889.5
 -7.19999981   -4544773.5
 -7.01000023   -4545653.
 -6.82000017   -4546524.
 -6.63000011   -4547389.5
 -6.44000006   -4548251.5
 -6.25   -4549116.
 -6.05999994   -4549990.
 -5.86999989   -4550877.5
 -5.67999983   -4551780.
 -5.48999977   -4552691.5
 -5.30000019   -4553607.5
 -5.11000013   -4554512.
 -4.92000008   -4555402.
 -4.73000002   -4556271.
 -4.53999996   -4557127.
 -4.3499999   -4557979.
 -4.15999985   -4558836.5
 -3.97000003   -4559712.
 -3.77999997   -4560611.
 -3.58999991   -4561527.5
 -3.4000001   -4562455.
 -3.21000004   -4563381.
 -3.01999998   -4564292.5
 -2.82999992   -4565183.
 -2.6400001   -4566053.5
 -2.45000005   -4566912.5
 -2.25999999   -4567769.5
 -2.06999993   -4568635.
 -1.88   -4569513.5
 -1.69000006   -4570404.5
 -1.5   -4571304.5
 -1.30999994   -4572203.
 -1.12   -4573092.
 -0.930000007   -4573973.
 -0.74000001   -4574846.
 -0.550000012   -4575715.5
 -0.360000014   -4576588.
 -0.170000002   -4577468.5
 1.999999955E-2   -4578352.
 0.209999993   -4579239.5
 0.400000006   -4580129.5
 0.589999974   -4581017.5
 0.779999971   -4581906.5
 0.970000029   -4582797.5
 1.15999997   -4583688.5
 1.35000002   -4584583.
 1.53999996   -4585476.5
 1.73000002   -4586368.5
 1.91999996   -4587254.
 2.1099999   -4588133.
 2.29999995   -4589005.5
 2.49000001   -4589879.
 2.68000007   -4590756.
 2.86999989   -4591643.
 3.05999994   -4592536.5
 3.25   -4593438.5
 3.44000006   -4594341.5
 3.63000011   -4595243.
 3.81999993   -4596140.
 4.01000023   -4597032.5
 4.19999981   -4597924.
 4.38999987   -4598811.5
 4.57999992   -4599698.
 4.76999998   -4600584.5
 4.96000004   -4601470.
 5.1500001   -4602354.5
 5.34000015   -4603237.
 5.53000021   -4604118.
 5.71999979   -4605000.
 5.90999985   -4605883.
 6.0999999   -4606766.5
 6.28999996   -4607648.
 6.48000002   -4608527.
 6.67000008   -4609397.
 6.86000013   -4610262.
 7.05000019   -4611123.
 7.23999977   -4611981.
 7.42999983   -4612844.
 7.61999989   -4613715.5
 7.80999994   -4614591.5
 8.   -4615471.
 8.18999958   -4616345.
 8.38000011   -4617211.5
 8.56999969   -4618070.5
 8.76000023   -4618919.
 8.94999981   -4619766.5
 9.14000034   -4620618.5
 9.32999992   -4621480.5
 9.52000046   -4622360.5
 9.71000004   -4623253.5
 9.89999962   -4624157.5
 10.0900002   -4625061.
 10.2799997   -4625956.
 10.4700003   -4626836.
 10.6599998   -4627698.
 10.8500004   -4628544.5
 11.04   -4629385.5
 11.2299995   -4630228.
 11.4200001   -4631079.
 11.6099997   -4631942.
 11.8000002   -4632816.5
 11.9899998   -4633696.5
 12.1800003   -4634574.
 12.3699999   -4635437.5
 12.5600004   -4636284.5
 12.75   -4637110.5
 12.9399996   -4637920.5
 13.1300001   -4638725.5
 13.3199997   -4639534.
 13.5100002   -4640353.5
 13.6999998   -4641192.
 13.8900003   -4642048.
 14.0799999   -4642919.5
 14.2700005   -4643797.5
 14.46   -4644674.
 14.6499996   -4645537.5
 14.8400002   -4646387.
 15.0299997   -4647222.
 15.2200003   -4648046.
 15.4099998   -4648869.
 15.6000004   -4649697.5
 15.79   -4650539.
 15.9799995   -4651394.5
 16.1700001   -4652260.5
 16.3600006   -4653127.5
 16.5499992   -4653991.
 16.7399998   -4654844.5
 16.9300003   -4655684.5
 17.1200008   -4656510.
 17.3099995   -4657323.
 17.5   -4658134.
 17.6900005   -4658946.5
 17.8799992   -4659768.5
 18.0699997   -4660600.
 18.2600002   -4661438.
 18.4500008   -4662284.5
 18.6399994   -4663131.
 18.8299999   -4663978.5
 19.0200005   -4664825.
 19.2099991   -4665669.
 19.3999996   -4666509.5
 19.5900002   -4667347.5
 19.7800007   -4668181.
 19.9699993   -4669013.
 20.1599998   -4669845.5
 20.3500004   -4670679.
 20.5400009   -4671516.
 20.7299995   -4672358.
 20.9200001   -4673206.
 21.1100006   -4674060.5
 21.2999992   -4674916.
 21.4899998   -4675769.
 21.6800003   -4676614.
 21.8700008   -4677450.5
 22.0599995   -4678278.
 22.25   -4679103.
 22.4400005   -4679933.
 22.6299992   -4680774.
 22.8199997   -4681630.
 23.0100002   -4682501.
 23.2000008   -4683386.
 23.3899994   -4684272.5
 23.5799999   -4685155.5
 23.7700005   -4686023.5
 23.9599991   -4686870.
 24.1499996   -4687697.5
 24.3400002   -4688511.5
 24.5300007   -4689324.
 24.7199993   -4690139.5
 24.9099998   -4690968.
 25.1000004   -4691809.
 25.2900009   -4692661.
 25.4799995   -4693514.
 25.6700001   -4694363.5
 25.8600006   -4695201.5
 26.0499992   -4696026.
 26.2399998   -4696842.
 26.4300003   -4697653.5
 26.6200008   -4698476.
 26.8099995   -4699314.5
