 -30.   -592021.813
 -29.8099995   -592068.938
 -29.6200008   -592057.75
 -29.4300003   -592009.75
 -29.2399998   -591958.875
 -29.0499992   -591929.063
 -28.8600006   -591940.
 -28.6700001   -591995.25
 -28.4799995   -592087.25
 -28.2900009   -592187.813
 -28.1000004   -592267.
 -27.9099998   -592291.75
 -27.7199993   -592245.438
 -27.5300007   -592126.125
 -27.3400002   -591952.313
 -27.1499996   -591764.25
 -26.9599991   -591604.563
 -26.7700005   -591510.875
 -26.5799999   -591506.063
 -26.3899994   -591587.5
 -26.2000008   -591728.75
 -26.0100002   -591884.563
 -25.8199997   -592006.938
 -25.6299992   -592054.5
 -25.4400005   -592010.
 -25.25   -591880.75
 -25.0599995   -591706.563
 -24.8700008   -591534.
 -24.6800003   -591415.938
 -24.4899998   -591387.5
 -24.2999992   -591453.25
 -24.1100006   -591594.125
 -23.9200001   -591763.125
 -23.7299995   -591907.938
 -23.5400009   -591981.375
 -23.3500004   -591953.188
 -23.1599998   -591829.813
 -22.9699993   -591640.688
 -22.7800007   -591435.063
 -22.5900002   -591266.5
 -22.3999996   -591179.25
 -22.2099991   -591187.813
 -22.0200005   -591282.063
 -21.8299999   -591422.438
 -21.6399994   -591561.
 -21.4500008   -591652.188
 -21.2600002   -591667.813
 -21.0699997   -591600.688
 -20.8799992   -591472.25
 -20.6900005   -591322.563
 -20.5   -591201.375
 -20.3099995   -591148.813
 -20.1200008   -591188.938
 -19.9300003   -591321.063
 -19.7399998   -591519.188
 -19.5499992   -591739.188
 -19.3600006   -591937.438
 -19.1700001   -592075.875
 -18.9799995   -592136.25
 -18.7900009   -592123.063
 -18.6000004   -592063.313
 -18.4099998   -591998.
 -18.2199993   -591967.813
 -18.0300007   -592003.75
 -17.8400002   -592119.063
 -17.6499996   -592303.313
 -17.4599991   -592525.
 -17.2700005   -592746.875
 -17.0799999   -592928.
 -16.8899994   -593043.688
 -16.7000008   -593088.125
 -16.5100002   -593075.625
 -16.3199997   -593034.25
 -16.1299992   -592999.875
 -15.9399996   -593005.625
 -15.75   -593071.563
 -15.5600004   -593202.438
 -15.3699999   -593378.938
 -15.1800003   -593573.938
 -14.9899998   -593749.75
 -14.8000002   -593875.375
 -14.6099997   -593938.125
 -14.4200001   -593935.688
 -14.2299995   -593890.75
 -14.04   -593834.438
 -13.8500004   -593807.5
 -13.6599998   -593839.875
 -13.4700003   -593952.938
 -13.2799997   -594147.938
 -13.0900002   -594408.063
 -12.8999996   -594695.063
 -12.71   -594974.25
 -12.5200005   -595206.25
 -12.3299999   -595370.438
 -12.1400003   -595465.438
 -11.9499998   -595509.063
 -11.7600002   -595532.
 -11.5699997   -595566.688
 -11.3800001   -595647.625
 -11.1899996   -595782.625
 -11.   -595964.813
 -10.8100004   -596170.188
 -10.6199999   -596360.563
 -10.4300003   -596499.375
 -10.2399998   -596560.938
 -10.0500002   -596539.188
 -9.85999966   -596450.688
 -9.67000008   -596326.313
 -9.47999954   -596210.813
 -9.28999996   -596140.688
 -9.10000038   -596146.75
 -8.90999985   -596235.688
 -8.72000027   -596394.188
 -8.52999973   -596593.688
 -8.34000015   -596800.063
 -8.14999962   -596974.25
 -7.96000004   -597099.5
 -7.76999998   -597170.125
 -7.57999992   -597197.125
 -7.38999987   -597211.063
 -7.19999981   -597241.313
 -7.01000023   -597316.875
 -6.82000017   -597457.875
 -6.63000011   -597663.813
 -6.44000006   -597913.5
 -6.25   -598178.063
 -6.05999994   -598418.688
 -5.86999989   -598599.125
 -5.67999983   -598701.313
 -5.48999977   -598726.063
 -5.30000019   -598692.625
 -5.11000013   -598633.
 -4.92000008   -598594.375
 -4.73000002   -598602.438
 -4.53999996   -598680.625
 -4.3499999   -598823.063
 -4.15999985   -599001.313
 -3.97000003   -599179.688
 -3.77999997   -599318.438
 -3.58999991   -599386.5
 -3.4000001   -599378.188
 -3.21000004   -599307.375
 -3.01999998   -599205.188
 -2.82999992   -599119.
 -2.6400001   -599091.125
 -2.45000005   -599149.125
 -2.25999999   -599301.688
 -2.06999993   -599532.375
 -1.88   -599802.938
 -1.69000006   -600068.813
 -1.5   -600282.438
 -1.30999994   -600418.5
 -1.12   -600469.813
 -0.930000007   -600450.188
 -0.74000001   -600398.625
 -0.550000012   -600355.375
 -0.360000014   -600362.563
 -0.170000002   -600446.813
 1.999999955E-2   -600606.938
 0.209999993   -600826.5
 0.400000006   -601064.
 0.589999974   -601273.5
 0.779999971   -601424.75
 0.970000029   -601492.188
 1.15999997   -601485.625
 1.35000002   -601427.188
 1.53999996   -601368.25
 1.73000002   -601351.
 1.91999996   -601408.438
 2.1099999   -601557.688
 2.29999995   -601783.188
 2.49000001   -602047.813
 2.68000007   -602301.938
 2.86999989   -602497.375
 3.05999994   -602599.875
 3.25   -602600.188
 3.44000006   -602524.188
 3.63000011   -602405.875
 3.81999993   -602298.188
 4.01000023   -602246.375
 4.19999981   -602278.
 4.38999987   -602401.688
 4.57999992   -602596.313
 4.76999998   -602823.125
 4.96000004   -603040.188
 5.1500001   -603201.875
 5.34000015   -603288.813
 5.53000021   -603303.063
 5.71999979   -603270.313
 5.90999985   -603232.375
 6.0999999   -603234.625
 6.28999996   -603315.313
 6.48000002   -603491.813
 6.67000008   -603753.25
 6.86000013   -604066.875
 7.05000019   -604379.75
 7.23999977   -604639.625
 7.42999983   -604804.063
 7.61999989   -604859.063
 7.80999994   -604814.875
 8.   -604708.
 8.18999958   -604586.75
 8.38000011   -604504.813
 8.56999969   -604500.25
 8.76000023   -604584.688
 8.94999981   -604747.563
 9.14000034   -604946.875
 9.32999992   -605133.438
 9.52000046   -605260.875
 9.71000004   -605297.938
 9.89999962   -605242.5
 10.0900002   -605119.438
 10.2799997   -604979.438
 10.4700003   -604880.75
 10.6599998   -604872.75
 10.8500004   -604981.813
 11.04   -605205.313
 11.2299995   -605506.938
 11.4200001   -605836.313
 11.6099997   -606131.438
 11.8000002   -606342.563
 11.9899998   -606445.188
 12.1800003   -606450.
 12.3699999   -606394.875
 12.5600004   -606332.563
 12.75   -606322.25
 12.9399996   -606404.875
 13.1300001   -606594.188
 13.3199997   -606871.563
 13.5100002   -607190.188
 13.6999998   -607484.938
 13.8900003   -607705.125
 14.0799999   -607811.25
 14.2700005   -607800.688
 14.46   -607700.688
 14.6499996   -607566.313
 14.8400002   -607460.813
 15.0299997   -607437.5
 15.2200003   -607527.625
 15.4099998   -607729.5
 15.6000004   -608006.75
 15.79   -608309.
 15.9799995   -608573.063
 16.1700001   -608756.063
 16.3600006   -608839.563
 16.5499992   -608834.
 16.7399998   -608775.25
 16.9300003   -608718.438
 17.1200008   -608713.813
 17.3099995   -608800.25
 17.5   -608986.
 17.6900005   -609249.938
 17.8799992   -609549.
 18.0699997   -609822.813
 18.2600002   -610020.75
 18.4500008   -610109.313
 18.6399994   -610083.438
 18.8299999   -609972.938
 19.0200005   -609825.875
 19.2099991   -609699.625
 19.3999996   -609646.625
 19.5900002   -609698.875
 19.7800007   -609854.563
 19.9699993   -610084.375
 20.1599998   -610340.5
 20.3500004   -610562.438
 20.5400009   -610704.938
 20.7299995   -610742.188
 20.9200001   -610684.5
 21.1100006   -610566.
 21.2999992   -610445.688
 21.4899998   -610377.
 21.6800003   -610405.688
 21.8700008   -610549.375
 22.0599995   -610788.688
 22.25   -611077.875
 22.4400005   -611355.813
 22.6299992   -611563.5
 22.8199997   -611662.875
 23.0100002   -611649.75
 23.2000008   -611550.938
 23.3899994   -611424.
 23.5799999   -611329.125
 23.7700005   -611321.75
 23.9599991   -611429.25
 24.1499996   -611652.25
 24.3400002   -611953.938
 24.5300007   -612284.813
 24.7199993   -612584.375
 24.9099998   -612804.688
 25.1000004   -612922.688
 25.2900009   -612941.875
 25.4799995   -612896.
 25.6700001   -612841.25
 25.8600006   -612826.875
 26.0499992   -612891.625
 26.2399998   -613049.5
 26.4300003   -613287.375
 26.6200008   -613565.625
 26.8099995   -613832.438
