 -30.   7308395.
 -29.8099995   7309904.
 -29.6200008   7311418.5
 -29.4300003   7312923.5
 -29.2399998   7314419.
 -29.0499992   7315916.
 -28.8600006   7317423.5
 -28.6700001   7318942.
 -28.4799995   7320463.
 -28.2900009   7321976.
 -28.1000004   7323475.
 -27.9099998   7324973.5
 -27.7199993   7326479.
 -27.5300007   7327995.
 -27.3400002   7329517.5
 -27.1499996   7331033.5
 -26.9599991   7332537.5
 -26.7700005   7334036.5
 -26.5799999   7335546.5
 -26.3899994   7337067.
 -26.2000008   7338595.
 -26.0100002   7340114.5
 -25.8199997   7341623.
 -25.6299992   7343126.
 -25.4400005   7344632.
 -25.25   7346148.
 -25.0599995   7347671.5
 -24.8700008   7349191.5
 -24.6800003   7350699.5
 -24.4899998   7352200.5
 -24.2999992   7353701.
 -24.1100006   7355215.5
 -23.9200001   7356739.
 -23.7299995   7358259.5
 -23.5400009   7359771.5
 -23.3500004   7361271.
 -23.1599998   7362771.
 -22.9699993   7364280.
 -22.7800007   7365799.5
 -22.5900002   7367318.
 -22.3999996   7368824.5
 -22.2099991   7370322.5
 -22.0200005   7371818.5
 -21.8299999   7373327.5
 -21.6399994   7374848.
 -21.4500008   7376372.5
 -21.2600002   7377884.
 -21.0699997   7379380.
 -20.8799992   7380871.5
 -20.6900005   7382368.5
 -20.5   7383876.
 -20.3099995   7385388.
 -20.1200008   7386890.5
 -19.9300003   7388381.5
 -19.7399998   7389868.5
 -19.5499992   7391365.5
 -19.3600006   7392883.
 -19.1700001   7394408.5
 -18.9799995   7395929.
 -18.7900009   7397433.
 -18.6000004   7398931.5
 -18.4099998   7400437.5
 -18.2199993   7401960.
 -18.0300007   7403489.
 -17.8400002   7405007.
 -17.6499996   7406509.5
 -17.4599991   7407999.5
 -17.2700005   7409493.5
 -17.0799999   7411003.5
 -16.8899994   7412520.5
 -16.7000008   7414036.
 -16.5100002   7415536.
 -16.3199997   7417027.5
 -16.1299992   7418529.
 -15.9399996   7420048.5
 -15.75   7421580.5
 -15.5600004   7423111.5
 -15.3699999   7424630.5
 -15.1800003   7426138.
 -14.9899998   7427647.5
 -14.8000002   7429172.5
 -14.6099997   7430706.5
 -14.4200001   7432238.5
 -14.2299995   7433753.5
 -14.04   7435253.5
 -13.8500004   7436752.
 -13.6599998   7438265.5
 -13.4700003   7439796.
 -13.2799997   7441326.5
 -13.0900002   7442847.
 -12.8999996   7444349.
 -12.71   7445848.5
 -12.5200005   7447359.5
 -12.3299999   7448884.5
 -12.1400003   7450415.
 -11.9499998   7451932.5
 -11.7600002   7453433.5
 -11.5699997   7454927.
 -11.3800001   7456436.5
 -11.1899996   7457963.
 -11.   7459498.5
 -10.8100004   7461021.5
 -10.6199999   7462526.
 -10.4300003   7464018.
 -10.2399998   7465516.5
 -10.0500002   7467031.
 -9.85999966   7468551.
 -9.67000008   7470061.5
 -9.47999954   7471553.
 -9.28999996   7473038.5
 -9.10000038   7474536.5
 -8.90999985   7476056.
 -8.72000027   7477590.
 -8.52999973   7479116.
 -8.34000015   7480623.5
 -8.14999962   7482119.5
 -7.96000004   7483619.5
 -7.76999998   7485135.
 -7.57999992   7486660.
 -7.38999987   7488176.
 -7.19999981   7489673.5
 -7.01000023   7491156.
 -6.82000017   7492639.5
 -6.63000011   7494136.
 -6.44000006   7495645.5
 -6.25   7497154.5
 -6.05999994   7498648.5
 -5.86999989   7500134.
 -5.67999983   7501627.
 -5.48999977   7503140.
 -5.30000019   7504666.5
 -5.11000013   7506195.5
 -4.92000008   7507708.
 -4.73000002   7509205.
 -4.53999996   7510699.
 -4.3499999   7512201.5
 -4.15999985   7513715.
 -3.97000003   7515230.
 -3.77999997   7516734.
 -3.58999991   7518224.
 -3.4000001   7519716.5
 -3.21000004   7521224.
 -3.01999998   7522749.5
 -2.82999992   7524282.5
 -2.6400001   7525801.5
 -2.45000005   7527306.
 -2.25999999   7528801.5
 -2.06999993   7530309.
 -1.88   7531836.
 -1.69000006   7533369.
 -1.5   7534891.
 -1.30999994   7536396.
 -1.12   7537894.
 -0.930000007   7539401.5
 -0.74000001   7540923.5
 -0.550000012   7542450.
 -0.360000014   7543965.
 -0.170000002   7545463.
 1.999999955E-2   7546955.
 0.209999993   7548460.5
 0.400000006   7549984.
 0.589999974   7551519.
 0.779999971   7553045.5
 0.970000029   7554556.
 1.15999997   7556059.
 1.35000002   7557569.
 1.53999996   7559094.
 1.73000002   7560627.5
 1.91999996   7562155.5
 2.1099999   7563669.
 2.29999995   7565175.
 2.49000001   7566685.
 2.68000007   7568210.
 2.86999989   7569745.5
 3.05999994   7571278.5
 3.25   7572794.5
 3.44000006   7574298.
 3.63000011   7575800.5
 3.81999993   7577318.5
 4.01000023   7578849.5
 4.19999981   7580384.
 4.38999987   7581908.
 4.57999992   7583425.
 4.76999998   7584942.
 4.96000004   7586472.
 5.1500001   7588012.
 5.34000015   7589554.
 5.53000021   7591081.
 5.71999979   7592594.
 5.90999985   7594104.
 6.0999999   7595622.
 6.28999996   7597153.
 6.48000002   7598689.
 6.67000008   7600215.5
 6.86000013   7601729.
 7.05000019   7603240.5
 7.23999977   7604758.5
 7.42999983   7606289.5
 7.61999989   7607824.5
 7.80999994   7609352.5
 8.   7610872.5
 8.18999958   7612386.
 8.38000011   7613908.
 8.56999969   7615442.5
 8.76000023   7616981.5
 8.94999981   7618514.5
 9.14000034   7620034.
 9.32999992   7621547.5
 9.52000046   7623060.
 9.71000004   7624580.5
 9.89999962   7626107.5
 10.0900002   7627633.5
 10.2799997   7629150.
 10.4700003   7630662.5
 10.6599998   7632176.5
 10.8500004   7633704.
 11.04   7635239.
 11.2299995   7636777.
 11.4200001   7638303.5
 11.6099997   7639817.
 11.8000002   7641327.
 11.9899998   7642842.
 12.1800003   7644368.
 12.3699999   7645900.5
 12.5600004   7647428.5
 12.75   7648947.
 12.9399996   7650456.5
 13.1300001   7651969.5
 13.3199997   7653494.
 13.5100002   7655024.
 13.6999998   7656551.
 13.8900003   7658068.
 14.0799999   7659574.5
 14.2700005   7661082.
 14.46   7662602.5
 14.6499996   7664139.
 14.8400002   7665674.5
 15.0299997   7667203.5
 15.2200003   7668721.5
 15.4099998   7670240.5
 15.6000004   7671770.
 15.79   7673312.5
 15.9799995   7674857.5
 16.1700001   7676393.
 16.3600006   7677916.
 16.5499992   7679436.5
 16.7399998   7680963.5
 16.9300003   7682501.5
 17.1200008   7684044.
 17.3099995   7685574.5
 17.5   7687091.
 17.6900005   7688604.5
 17.8799992   7690123.
 18.0699997   7691655.
 18.2600002   7693196.
 18.4500008   7694733.5
 18.6399994   7696259.5
 18.8299999   7697782.5
 19.0200005   7699311.
 19.2099991   7700855.
 19.3999996   7702410.
 19.5900002   7703956.
 19.7800007   7705485.
 19.9699993   7707002.5
 20.1599998   7708523.
 20.3500004   7710061.
 20.5400009   7711612.5
 20.7299995   7713163.5
 20.9200001   7714698.5
 21.1100006   7716222.5
 21.2999992   7717753.5
 21.4899998   7719304.5
 21.6800003   7720870.
 21.8700008   7722435.
 22.0599995   7723981.5
 22.25   7725515.
 22.4400005   7727052.
 22.6299992   7728606.5
 22.8199997   7730177.5
 23.0100002   7731746.5
 23.2000008   7733296.5
 23.3899994   7734830.
 23.5799999   7736363.5
 23.7700005   7737909.5
 23.9599991   7739473.5
 24.1499996   7741034.
 24.3400002   7742580.5
 24.5300007   7744107.
 24.7199993   7745625.
 24.9099998   7747155.5
 25.1000004   7748699.5
 25.2900009   7750249.5
 25.4799995   7751784.
 25.6700001   7753299.5
 25.8600006   7754814.
 26.0499992   7756340.5
 26.2399998   7757882.5
 26.4300003   7759426.5
 26.6200008   7760957.5
 26.8099995   7762469.5
