 -30.   -535252.875
 -29.8099995   -535352.
 -29.6200008   -535442.625
 -29.4300003   -535529.063
 -29.2399998   -535615.875
 -29.0499992   -535707.688
 -28.8600006   -535805.688
 -28.6700001   -535908.313
 -28.4799995   -536014.875
 -28.2900009   -536120.875
 -28.1000004   -536222.063
 -27.9099998   -536318.625
 -27.7199993   -536406.563
 -27.5300007   -536488.063
 -27.3400002   -536568.188
 -27.1499996   -536648.938
 -26.9599991   -536735.25
 -26.7700005   -536829.75
 -26.5799999   -536931.5
 -26.3899994   -537038.75
 -26.2000008   -537149.063
 -26.0100002   -537257.688
 -25.8199997   -537363.063
 -25.6299992   -537460.
 -25.4400005   -537551.625
 -25.25   -537636.5
 -25.0599995   -537721.
 -24.8700008   -537807.25
 -24.6800003   -537899.688
 -24.4899998   -537998.688
 -24.2999992   -538105.063
 -24.1100006   -538216.375
 -23.9200001   -538327.438
 -23.7299995   -538435.438
 -23.5400009   -538534.375
 -23.3500004   -538626.313
 -23.1599998   -538710.563
 -22.9699993   -538792.375
 -22.7800007   -538877.438
 -22.5900002   -538966.5
 -22.3999996   -539064.438
 -22.2099991   -539172.
 -22.0200005   -539285.875
 -21.8299999   -539402.75
 -21.6399994   -539516.625
 -21.4500008   -539622.625
 -21.2600002   -539721.563
 -21.0699997   -539813.625
 -20.8799992   -539898.438
 -20.6900005   -539984.688
 -20.5   -540075.25
 -20.3099995   -540173.5
 -20.1200008   -540282.188
 -19.9300003   -540399.
 -19.7399998   -540518.563
 -19.5499992   -540637.188
 -19.3600006   -540750.438
 -19.1700001   -540857.
 -18.9799995   -540952.75
 -18.7900009   -541042.75
 -18.6000004   -541130.188
 -18.4099998   -541220.688
 -18.2199993   -541316.625
 -18.0300007   -541421.438
 -17.8400002   -541535.188
 -17.6499996   -541657.125
 -17.4599991   -541780.188
 -17.2700005   -541900.875
 -17.0799999   -542014.063
 -16.8899994   -542118.875
 -16.7000008   -542217.
 -16.5100002   -542308.938
 -16.3199997   -542399.625
 -16.1299992   -542492.75
 -15.9399996   -542591.5
 -15.75   -542696.5
 -15.5600004   -542807.688
 -15.3699999   -542922.188
 -15.1800003   -543035.25
 -14.9899998   -543145.125
 -14.8000002   -543247.438
 -14.6099997   -543343.063
 -14.4200001   -543432.125
 -14.2299995   -543522.125
 -14.04   -543615.188
 -13.8500004   -543715.5
 -13.6599998   -543826.063
 -13.4700003   -543943.813
 -13.2799997   -544067.563
 -13.0900002   -544193.125
 -12.8999996   -544315.875
 -12.71   -544432.125
 -12.5200005   -544541.313
 -12.3299999   -544644.875
 -12.1400003   -544745.313
 -11.9499998   -544845.
 -11.7600002   -544946.938
 -11.5699997   -545053.625
 -11.3800001   -545164.188
 -11.1899996   -545277.75
 -11.   -545389.188
 -10.8100004   -545498.438
 -10.6199999   -545599.875
 -10.4300003   -545695.
 -10.2399998   -545783.188
 -10.0500002   -545868.688
 -9.85999966   -545956.75
 -9.67000008   -546047.875
 -9.47999954   -546147.813
 -9.28999996   -546257.625
 -9.10000038   -546371.188
 -8.90999985   -546487.625
 -8.72000027   -546601.625
 -8.52999973   -546710.188
 -8.34000015   -546813.75
 -8.14999962   -546909.875
 -7.96000004   -547004.063
 -7.76999998   -547100.625
 -7.57999992   -547202.25
 -7.38999987   -547311.063
 -7.19999981   -547429.063
 -7.01000023   -547554.875
 -6.82000017   -547684.125
 -6.63000011   -547813.5
 -6.44000006   -547938.5
 -6.25   -548056.375
 -6.05999994   -548165.688
 -5.86999989   -548267.813
 -5.67999983   -548364.5
 -5.48999977   -548458.375
 -5.30000019   -548556.063
 -5.11000013   -548657.125
 -4.92000008   -548763.5
 -4.73000002   -548875.188
 -4.53999996   -548990.
 -4.3499999   -549104.188
 -4.15999985   -549216.188
 -3.97000003   -549321.25
 -3.77999997   -549421.125
 -3.58999991   -549516.188
 -3.4000001   -549610.563
 -3.21000004   -549707.438
 -3.01999998   -549808.438
 -2.82999992   -549917.875
 -2.6400001   -550030.5
 -2.45000005   -550149.313
 -2.25999999   -550270.125
 -2.06999993   -550389.063
 -1.88   -550502.188
 -1.69000006   -550610.188
 -1.5   -550712.
 -1.30999994   -550810.25
 -1.12   -550908.313
 -0.930000007   -551010.313
 -0.74000001   -551116.563
 -0.550000012   -551226.688
 -0.360000014   -551346.188
 -0.170000002   -551465.25
 1.999999955E-2   -551586.25
 0.209999993   -551701.75
 0.400000006   -551811.375
 0.589999974   -551914.688
 0.779999971   -552013.438
 0.970000029   -552111.25
 1.15999997   -552209.688
 1.35000002   -552311.063
 1.53999996   -552420.813
 1.73000002   -552534.
 1.91999996   -552650.188
 2.1099999   -552767.313
 2.29999995   -552881.375
 2.49000001   -552991.25
 2.68000007   -553098.438
 2.86999989   -553201.438
 3.05999994   -553303.188
 3.25   -553404.25
 3.44000006   -553507.5
 3.63000011   -553614.313
 3.81999993   -553721.813
 4.01000023   -553831.938
 4.19999981   -553940.75
 4.38999987   -554048.188
 4.57999992   -554155.25
 4.76999998   -554261.188
 4.96000004   -554364.563
 5.1500001   -554468.938
 5.34000015   -554573.438
 5.53000021   -554681.438
 5.71999979   -554792.313
 5.90999985   -554907.375
 6.0999999   -555027.
 6.28999996   -555148.188
 6.48000002   -555271.063
 6.67000008   -555393.375
 6.86000013   -555513.125
 7.05000019   -555627.125
 7.23999977   -555736.5
 7.42999983   -555839.563
 7.61999989   -555939.938
 7.80999994   -556040.688
 8.   -556143.813
 8.18999958   -556251.375
 8.38000011   -556366.063
 8.56999969   -556483.
 8.76000023   -556600.625
 8.94999981   -556713.75
 9.14000034   -556820.625
 9.32999992   -556921.125
 9.52000046   -557013.813
 9.71000004   -557105.625
 9.89999962   -557200.75
 10.0900002   -557302.438
 10.2799997   -557414.188
 10.4700003   -557536.063
 10.6599998   -557663.5
 10.8500004   -557792.188
 11.04   -557915.063
 11.2299995   -558031.875
 11.4200001   -558139.5
 11.6099997   -558244.5
 11.8000002   -558347.688
 11.9899998   -558450.188
 12.1800003   -558560.75
 12.3699999   -558678.25
 12.5600004   -558803.688
 12.75   -558935.063
 12.9399996   -559063.063
 13.1300001   -559187.875
 13.3199997   -559305.688
 13.5100002   -559414.625
 13.6999998   -559514.875
 13.8900003   -559610.125
 14.0799999   -559702.063
 14.2700005   -559797.063
 14.46   -559896.563
 14.6499996   -560002.938
 14.8400002   -560117.813
 15.0299997   -560237.375
 15.2200003   -560356.25
 15.4099998   -560474.438
 15.6000004   -560585.125
 15.79   -560689.313
 15.9799995   -560788.5
 16.1700001   -560881.563
 16.3600006   -560976.875
 16.5499992   -561074.813
 16.7399998   -561179.563
 16.9300003   -561291.25
 17.1200008   -561407.938
 17.3099995   -561525.75
 17.5   -561640.438
 17.6900005   -561750.563
 17.8799992   -561852.875
 18.0699997   -561952.375
 18.2600002   -562052.375
 18.4500008   -562154.063
 18.6399994   -562260.188
 18.8299999   -562372.
 19.0200005   -562488.25
 19.2099991   -562607.625
 19.3999996   -562726.188
 19.5900002   -562839.438
 19.7800007   -562948.688
 19.9699993   -563051.313
 20.1599998   -563153.375
 20.3500004   -563254.375
 20.5400009   -563358.375
 20.7299995   -563465.313
 20.9200001   -563576.375
 21.1100006   -563690.125
 21.2999992   -563804.25
 21.4899998   -563917.063
 21.6800003   -564026.375
 21.8700008   -564135.625
 22.0599995   -564243.063
 22.25   -564351.063
 22.4400005   -564461.563
 22.6299992   -564576.063
 22.8199997   -564695.25
 23.0100002   -564817.313
 23.2000008   -564941.188
 23.3899994   -565063.938
 23.5799999   -565184.125
 23.7700005   -565302.188
 23.9599991   -565419.5
 24.1499996   -565534.813
 24.3400002   -565651.
 24.5300007   -565767.438
 24.7199993   -565887.438
 24.9099998   -566009.688
 25.1000004   -566133.875
 25.2900009   -566260.25
 25.4799995   -566385.25
 25.6700001   -566512.125
 25.8600006   -566637.813
 26.0499992   -566760.125
 26.2399998   -566880.5
 26.4300003   -566999.188
 26.6200008   -567115.125
 26.8099995   -567231.5
