 -30.   8253457.5
 -29.8099995   8255130.
 -29.6200008   8256791.
 -29.4300003   8258446.5
 -29.2399998   8260098.5
 -29.0499992   8261758.
 -28.8600006   8263423.
 -28.6700001   8265096.5
 -28.4799995   8266775.
 -28.2900009   8268452.
 -28.1000004   8270124.5
 -27.9099998   8271785.5
 -27.7199993   8273436.5
 -27.5300007   8275075.5
 -27.3400002   8276710.
 -27.1499996   8278343.
 -26.9599991   8279982.5
 -26.7700005   8281630.5
 -26.5799999   8283290.
 -26.3899994   8284958.
 -26.2000008   8286632.
 -26.0100002   8288301.
 -25.8199997   8289966.
 -25.6299992   8291618.5
 -25.4400005   8293258.5
 -25.25   8294890.5
 -25.0599995   8296517.
 -24.8700008   8298145.5
 -24.6800003   8299782.
 -24.4899998   8301429.
 -24.2999992   8303083.5
 -24.1100006   8304747.5
 -23.9200001   8306412.5
 -23.7299995   8308071.
 -23.5400009   8309718.5
 -23.3500004   8311354.5
 -23.1599998   8312978.
 -22.9699993   8314593.
 -22.7800007   8316208.5
 -22.5900002   8317828.5
 -22.3999996   8319460.5
 -22.2099991   8321104.
 -22.0200005   8322758.
 -21.8299999   8324416.
 -21.6399994   8326071.5
 -21.4500008   8327718.5
 -21.2600002   8329354.
 -21.0699997   8330978.5
 -20.8799992   8332595.5
 -20.6900005   8334211.
 -20.5   8335831.
 -20.3099995   8337461.5
 -20.1200008   8339104.5
 -19.9300003   8340759.5
 -19.7399998   8342420.5
 -19.5499992   8344082.
 -19.3600006   8345737.
 -19.1700001   8347381.5
 -18.9799995   8349014.
 -18.7900009   8350638.5
 -18.6000004   8352258.5
 -18.4099998   8353881.5
 -18.2199993   8355514.5
 -18.0300007   8357158.
 -17.8400002   8358813.
 -17.6499996   8360476.5
 -17.4599991   8362142.
 -17.2700005   8363805.
 -17.0799999   8365457.5
 -16.8899994   8367101.
 -16.7000008   8368733.5
 -16.5100002   8370360.
 -16.3199997   8371986.
 -16.1299992   8373615.5
 -15.9399996   8375252.5
 -15.75   8376897.
 -15.5600004   8378549.
 -15.3699999   8380205.5
 -15.1800003   8381860.
 -14.9899998   8383507.
 -14.8000002   8385145.
 -14.6099997   8386774.
 -14.4200001   8388396.5
 -14.2299995   8390015.
 -14.04   8391636.
 -13.8500004   8393265.
 -13.6599998   8394902.
 -13.4700003   8396549.
 -13.2799997   8398204.
 -13.0900002   8399865.
 -12.8999996   8401523.
 -12.71   8403177.
 -12.5200005   8404825.
 -12.3299999   8406464.
 -12.1400003   8408096.
 -11.9499998   8409723.
 -11.7600002   8411352.
 -11.5699997   8412983.
 -11.3800001   8414620.
 -11.1899996   8416263.
 -11.   8417908.
 -10.8100004   8419553.
 -10.6199999   8421193.
 -10.4300003   8422823.
 -10.2399998   8424438.
 -10.0500002   8426042.
 -9.85999966   8427635.
 -9.67000008   8429222.
 -9.47999954   8430811.
 -9.28999996   8432405.
 -9.10000038   8434012.
 -8.90999985   8435631.
 -8.72000027   8437261.
 -8.52999973   8438897.
 -8.34000015   8440532.
 -8.14999962   8442162.
 -7.96000004   8443782.
 -7.76999998   8445394.
 -7.57999992   8446999.
 -7.38999987   8448604.
 -7.19999981   8450219.
 -7.01000023   8451844.
 -6.82000017   8453481.
 -6.63000011   8455128.
 -6.44000006   8456779.
 -6.25   8458428.
 -6.05999994   8460066.
 -5.86999989   8461689.
 -5.67999983   8463297.
 -5.48999977   8464893.
 -5.30000019   8466482.
 -5.11000013   8468073.
 -4.92000008   8469670.
 -4.73000002   8471279.
 -4.53999996   8472900.
 -4.3499999   8474527.
 -4.15999985   8476153.
 -3.97000003   8477772.
 -3.77999997   8479376.
 -3.58999991   8480969.
 -3.4000001   8482548.
 -3.21000004   8484122.
 -3.01999998   8485700.
 -2.82999992   8487290.
 -2.6400001   8488896.
 -2.45000005   8490519.
 -2.25999999   8492155.
 -2.06999993   8493794.
 -1.88   8495430.
 -1.69000006   8497052.
 -1.5   8498657.
 -1.30999994   8500250.
 -1.12   8501830.
 -0.930000007   8503412.
 -0.74000001   8504999.
 -0.550000012   8506595.
 -0.360000014   8508205.
 -0.170000002   8509828.
 1.999999955E-2   8511457.
 0.209999993   8513084.
 0.400000006   8514705.
 0.589999974   8516313.
 0.779999971   8517906.
 0.970000029   8519489.
 1.15999997   8521064.
 1.35000002   8522642.
 1.53999996   8524227.
 1.73000002   8525826.
 1.91999996   8527441.
 2.1099999   8529066.
 2.29999995   8530697.
 2.49000001   8532323.
 2.68000007   8533936.
 2.86999989   8535531.
 3.05999994   8537105.
 3.25   8538664.
 3.44000006   8540219.
 3.63000011   8541779.
 3.81999993   8543354.
 4.01000023   8544948.
 4.19999981   8546559.
 4.38999987   8548182.
 4.57999992   8549808.
 4.76999998   8551425.
 4.96000004   8553024.
 5.1500001   8554605.
 5.34000015   8556171.
 5.53000021   8557731.
 5.71999979   8559293.
 5.90999985   8560872.
 6.0999999   8562469.
 6.28999996   8564086.
 6.48000002   8565713.
 6.67000008   8567342.
 6.86000013   8568963.
 7.05000019   8570567.
 7.23999977   8572151.
 7.42999983   8573715.
 7.61999989   8575267.
 7.80999994   8576815.
 8.   8578369.
 8.18999958   8579937.
 8.38000011   8581516.
 8.56999969   8583104.
 8.76000023   8584695.
 8.94999981   8586281.
 9.14000034   8587855.
 9.32999992   8589412.
 9.52000046   8590956.
 9.71000004   8592490.
 9.89999962   8594022.
 10.0900002   8595563.
 10.2799997   8597117.
 10.4700003   8598693.
 10.6599998   8600282.
 10.8500004   8601884.
 11.04   8603485.
 11.2299995   8605078.
 11.4200001   8606656.
 11.6099997   8608216.
 11.8000002   8609765.
 11.9899998   8611304.
 12.1800003   8612845.
 12.3699999   8614396.
 12.5600004   8615962.
 12.75   8617542.
 12.9399996   8619135.
 13.1300001   8620730.
 13.3199997   8622316.
 13.5100002   8623887.
 13.6999998   8625438.
 13.8900003   8626969.
 14.0799999   8628489.
 14.2700005   8630009.
 14.46   8631536.
 14.6499996   8633082.
 14.8400002   8634646.
 15.0299997   8636227.
 15.2200003   8637816.
 15.4099998   8639401.
 15.6000004   8640975.
 15.79   8642531.
 15.9799995   8644069.
 16.1700001   8645594.
 16.3600006   8647113.
 16.5499992   8648638.
 16.7399998   8650178.
 16.9300003   8651735.
 17.1200008   8653311.
 17.3099995   8654900.
 17.5   8656489.
 17.6900005   8658070.
 17.8799992   8659633.
 18.0699997   8661176.
 18.2600002   8662702.
 18.4500008   8664217.
 18.6399994   8665732.
 18.8299999   8667255.
 19.0200005   8668795.
 19.2099991   8670356.
 19.3999996   8671932.
 19.5900002   8673519.
 19.7800007   8675106.
 19.9699993   8676681.
 20.1599998   8678241.
 20.3500004   8679783.
 20.5400009   8681310.
 20.7299995   8682832.
 20.9200001   8684358.
 21.1100006   8685899.
 21.2999992   8687458.
 21.4899998   8689039.
 21.6800003   8690633.
 21.8700008   8692228.
 22.0599995   8693813.
 22.25   8695378.
 22.4400005   8696922.
 22.6299992   8698447.
 22.8199997   8699962.
 23.0100002   8701479.
 23.2000008   8703012.
 23.3899994   8704567.
 23.5799999   8706143.
 23.7700005   8707737.
 23.9599991   8709338.
 24.1499996   8710933.
 24.3400002   8712514.
 24.5300007   8714075.
 24.7199993   8715616.
 24.9099998   8717145.
 25.1000004   8718674.
 25.2900009   8720212.
 25.4799995   8721770.
 25.6700001   8723349.
 25.8600006   8724945.
 26.0499992   8726548.
 26.2399998   8728142.
 26.4300003   8729720.
 26.6200008   8731275.
 26.8099995   8732803.
