 -30.   -3853636.
 -29.8099995   -3854426.25
 -29.6200008   -3855221.
 -29.4300003   -3856024.25
 -29.2399998   -3856833.75
 -29.0499992   -3857647.5
 -28.8600006   -3858461.
 -28.6700001   -3859268.75
 -28.4799995   -3860062.75
 -28.2900009   -3860850.75
 -28.1000004   -3861637.5
 -27.9099998   -3862431.25
 -27.7199993   -3863240.75
 -27.5300007   -3864064.75
 -27.3400002   -3864897.5
 -27.1499996   -3865727.75
 -26.9599991   -3866546.75
 -26.7700005   -3867350.75
 -26.5799999   -3868141.25
 -26.3899994   -3868924.75
 -26.2000008   -3869709.
 -26.0100002   -3870502.25
 -25.8199997   -3871302.25
 -25.6299992   -3872105.75
 -25.4400005   -3872908.
 -25.25   -3873707.5
 -25.0599995   -3874503.5
 -24.8700008   -3875303.75
 -24.6800003   -3876106.75
 -24.4899998   -3876913.
 -24.2999992   -3877722.5
 -24.1100006   -3878525.75
 -23.9200001   -3879320.5
 -23.7299995   -3880107.
 -23.5400009   -3880888.5
 -23.3500004   -3881677.25
 -23.1599998   -3882479.
 -22.9699993   -3883299.
 -22.7800007   -3884130.
 -22.5900002   -3884963.5
 -22.3999996   -3885783.75
 -22.2099991   -3886587.
 -22.0200005   -3887369.25
 -21.8299999   -3888141.25
 -21.6399994   -3888914.25
 -21.4500008   -3889701.25
 -21.2600002   -3890507.75
 -21.0699997   -3891331.5
 -20.8799992   -3892163.
 -20.6900005   -3892991.25
 -20.5   -3893807.75
 -20.3099995   -3894607.5
 -20.1200008   -3895394.25
 -19.9300003   -3896177.25
 -19.7399998   -3896964.75
 -19.5499992   -3897763.5
 -19.3600006   -3898570.5
 -19.1700001   -3899384.25
 -18.9799995   -3900200.
 -18.7900009   -3901013.
 -18.6000004   -3901822.25
 -18.4099998   -3902627.5
 -18.2199993   -3903429.25
 -18.0300007   -3904228.5
 -17.8400002   -3905022.25
 -17.6499996   -3905808.75
 -17.4599991   -3906589.
 -17.2700005   -3907365.5
 -17.0799999   -3908144.
 -16.8899994   -3908934.
 -16.7000008   -3909733.75
 -16.5100002   -3910546.75
 -16.3199997   -3911364.75
 -16.1299992   -3912180.75
 -15.9399996   -3912988.
 -15.75   -3913785.5
 -15.5600004   -3914577.25
 -15.3699999   -3915368.75
 -15.1800003   -3916170.
 -14.9899998   -3916984.5
 -14.8000002   -3917811.5
 -14.6099997   -3918647.
 -14.4200001   -3919482.
 -14.2299995   -3920309.
 -14.04   -3921129.
 -13.8500004   -3921940.5
 -13.6599998   -3922752.75
 -13.4700003   -3923568.75
 -13.2799997   -3924390.5
 -13.0900002   -3925211.25
 -12.8999996   -3926026.5
 -12.71   -3926830.75
 -12.5200005   -3927627.5
 -12.3299999   -3928420.25
 -12.1400003   -3929216.75
 -11.9499998   -3930027.
 -11.7600002   -3930850.25
 -11.5699997   -3931684.25
 -11.3800001   -3932522.25
 -11.1899996   -3933351.75
 -11.   -3934167.75
 -10.8100004   -3934965.5
 -10.6199999   -3935749.75
 -10.4300003   -3936524.75
 -10.2399998   -3937301.
 -10.0500002   -3938083.25
 -9.85999966   -3938876.5
 -9.67000008   -3939679.
 -9.47999954   -3940487.
 -9.28999996   -3941295.5
 -9.10000038   -3942097.
 -8.90999985   -3942886.5
 -8.72000027   -3943664.25
 -8.52999973   -3944427.5
 -8.34000015   -3945179.
 -8.14999962   -3945926.
 -7.96000004   -3946673.25
 -7.76999998   -3947428.75
 -7.57999992   -3948196.5
 -7.38999987   -3948977.
 -7.19999981   -3949770.25
 -7.01000023   -3950566.
 -6.82000017   -3951360.5
 -6.63000011   -3952147.25
 -6.44000006   -3952922.5
 -6.25   -3953683.
 -6.05999994   -3954434.5
 -5.86999989   -3955181.75
 -5.67999983   -3955933.25
 -5.48999977   -3956701.5
 -5.30000019   -3957488.5
 -5.11000013   -3958297.25
 -4.92000008   -3959122.75
 -4.73000002   -3959951.75
 -4.53999996   -3960771.25
 -4.3499999   -3961569.5
 -4.15999985   -3962343.75
 -3.97000003   -3963096.75
 -3.77999997   -3963840.
 -3.58999991   -3964588.
 -3.4000001   -3965355.
 -3.21000004   -3966149.25
 -3.01999998   -3966968.75
 -2.82999992   -3967807.
 -2.6400001   -3968648.5
 -2.45000005   -3969481.5
 -2.25999999   -3970293.75
 -2.06999993   -3971081.25
 -1.88   -3971848.25
 -1.69000006   -3972601.75
 -1.5   -3973354.75
 -1.30999994   -3974115.25
 -1.12   -3974892.
 -0.930000007   -3975690.25
 -0.74000001   -3976509.
 -0.550000012   -3977344.
 -0.360000014   -3978181.
 -0.170000002   -3979007.25
 1.999999955E-2   -3979808.5
 0.209999993   -3980582.75
 0.400000006   -3981330.75
 0.589999974   -3982067.5
 0.779999971   -3982807.
 0.970000029   -3983564.5
 1.15999997   -3984349.75
 1.35000002   -3985159.5
 1.53999996   -3985985.25
 1.73000002   -3986813.25
 1.91999996   -3987627.75
 2.1099999   -3988420.25
 2.29999995   -3989187.25
 2.49000001   -3989935.
 2.68000007   -3990674.25
 2.86999989   -3991418.
 3.05999994   -3992176.5
 3.25   -3992955.
 3.44000006   -3993752.25
 3.63000011   -3994563.
 3.81999993   -3995379.75
 4.01000023   -3996195.75
 4.19999981   -3997000.5
 4.38999987   -3997788.
 4.57999992   -3998552.75
 4.76999998   -3999294.5
 4.96000004   -4000021.75
 5.1500001   -4000747.75
 5.34000015   -4001486.
 5.53000021   -4002249.75
 5.71999979   -4003038.
 5.90999985   -4003845.75
 6.0999999   -4004662.25
 6.28999996   -4005471.25
 6.48000002   -4006257.
 6.67000008   -4007013.5
 6.86000013   -4007741.
 7.05000019   -4008453.5
 7.23999977   -4009165.5
 7.42999983   -4009896.5
 7.61999989   -4010659.
 7.80999994   -4011448.5
 8.   -4012254.25
 8.18999958   -4013059.25
 8.38000011   -4013849.5
 8.56999969   -4014617.
 8.76000023   -4015361.75
 8.94999981   -4016093.75
 9.14000034   -4016822.5
 9.32999992   -4017557.75
 9.52000046   -4018306.25
 9.71000004   -4019072.5
 9.89999962   -4019850.75
 10.0900002   -4020637.75
 10.2799997   -4021430.75
 10.4700003   -4022223.
 10.6599998   -4023010.75
 10.8500004   -4023795.75
 11.04   -4024570.
 11.2299995   -4025335.5
 11.4200001   -4026091.75
 11.6099997   -4026841.75
 11.8000002   -4027594.
 11.9899998   -4028358.75
 12.1800003   -4029140.25
 12.3699999   -4029938.5
 12.5600004   -4030745.5
 12.75   -4031549.
 12.9399996   -4032339.25
 13.1300001   -4033108.5
 13.3199997   -4033857.
 13.5100002   -4034596.25
 13.6999998   -4035332.25
 13.8900003   -4036078.5
 14.0799999   -4036836.
 14.2700005   -4037604.75
 14.46   -4038378.5
 14.6499996   -4039151.25
 14.8400002   -4039919.5
 15.0299997   -4040681.
 15.2200003   -4041432.75
 15.4099998   -4042174.75
 15.6000004   -4042908.25
 15.79   -4043635.25
 15.9799995   -4044361.
 16.1700001   -4045088.5
 16.3600006   -4045823.5
 16.5499992   -4046571.25
 16.7399998   -4047333.25
 16.9300003   -4048106.5
 17.1200008   -4048887.25
 17.3099995   -4049665.25
 17.5   -4050435.25
 17.6900005   -4051194.5
 17.8799992   -4051944.75
 18.0699997   -4052694.
 18.2600002   -4053446.75
 18.4500008   -4054205.75
 18.6399994   -4054969.5
 18.8299999   -4055735.75
 19.0200005   -4056504.5
 19.2099991   -4057280.5
 19.3999996   -4058065.25
 19.5900002   -4058854.5
 19.7800007   -4059644.
 19.9699993   -4060423.
 20.1599998   -4061181.75
 20.3500004   -4061924.75
 20.5400009   -4062657.
 20.7299995   -4063396.25
 20.9200001   -4064150.75
 21.1100006   -4064927.5
 21.2999992   -4065721.
 21.4899998   -4066520.5
 21.6800003   -4067310.25
 21.8700008   -4068079.25
 22.0599995   -4068819.75
 22.25   -4069542.
 22.4400005   -4070255.5
 22.6299992   -4070976.
 22.8199997   -4071714.5
 23.0100002   -4072466.75
 23.2000008   -4073223.75
 23.3899994   -4073972.5
 23.5799999   -4074711.
 23.7700005   -4075438.25
 23.9599991   -4076165.5
 24.1499996   -4076900.75
 24.3400002   -4077640.5
 24.5300007   -4078380.25
 24.7199993   -4079113.
 24.9099998   -4079831.25
 25.1000004   -4080544.75
 25.2900009   -4081266.5
 25.4799995   -4082003.
 25.6700001   -4082757.5
 25.8600006   -4083523.75
 26.0499992   -4084290.5
 26.2399998   -4085045.25
 26.4300003   -4085776.75
 26.6200008   -4086486.75
 26.8099995   -4087185.25
