 -30.   -140641.297
 -29.8099995   -140727.484
 -29.6200008   -140854.859
 -29.4300003   -140997.031
 -29.2399998   -141126.5
 -29.0499992   -141220.547
 -28.8600006   -141277.797
 -28.6700001   -141302.563
 -28.4799995   -141315.969
 -28.2900009   -141333.516
 -28.1000004   -141373.297
 -27.9099998   -141439.5
 -27.7199993   -141531.906
 -27.5300007   -141638.453
 -27.3400002   -141746.516
 -27.1499996   -141842.719
 -26.9599991   -141922.984
 -26.7700005   -141987.844
 -26.5799999   -142042.563
 -26.3899994   -142095.156
 -26.2000008   -142146.719
 -26.0100002   -142204.813
 -25.8199997   -142270.688
 -25.6299992   -142345.563
 -25.4400005   -142428.406
 -25.25   -142519.906
 -25.0599995   -142617.484
 -24.8700008   -142717.859
 -24.6800003   -142812.828
 -24.4899998   -142896.859
 -24.2999992   -142962.453
 -24.1100006   -143006.516
 -23.9200001   -143029.344
 -23.7299995   -143042.75
 -23.5400009   -143056.031
 -23.3500004   -143086.5
 -23.1599998   -143141.516
 -22.9699993   -143222.188
 -22.7800007   -143320.75
 -22.5900002   -143424.672
 -22.3999996   -143510.953
 -22.2099991   -143569.359
 -22.0200005   -143589.406
 -21.8299999   -143576.
 -21.6399994   -143540.641
 -21.4500008   -143504.906
 -21.2600002   -143490.125
 -21.0699997   -143511.266
 -20.8799992   -143574.109
 -20.6900005   -143668.109
 -20.5   -143772.328
 -20.3099995   -143865.703
 -20.1200008   -143924.578
 -19.9300003   -143942.906
 -19.7399998   -143923.484
 -19.5499992   -143884.266
 -19.3600006   -143846.563
 -19.1700001   -143831.141
 -18.9799995   -143852.25
 -18.7900009   -143910.172
 -18.6000004   -143994.031
 -18.4099998   -144081.563
 -18.2199993   -144151.594
 -18.0300007   -144187.984
 -17.8400002   -144184.094
 -17.6499996   -144146.828
 -17.4599991   -144092.531
 -17.2700005   -144038.094
 -17.0799999   -144002.469
 -16.8899994   -143994.641
 -16.7000008   -144018.656
 -16.5100002   -144068.734
 -16.3199997   -144131.984
 -16.1299992   -144193.375
 -15.9399996   -144238.906
 -15.75   -144259.328
 -15.5600004   -144250.531
 -15.3699999   -144217.844
 -15.1800003   -144169.875
 -14.9899998   -144119.219
 -14.8000002   -144079.734
 -14.6099997   -144060.406
 -14.4200001   -144068.484
 -14.2299995   -144100.422
 -14.04   -144146.797
 -13.8500004   -144189.594
 -13.6599998   -144214.016
 -13.4700003   -144207.859
 -13.2799997   -144168.078
 -13.0900002   -144102.922
 -12.8999996   -144026.547
 -12.71   -143959.781
 -12.5200005   -143921.313
 -12.3299999   -143917.516
 -12.1400003   -143950.063
 -11.9499998   -144005.875
 -11.7600002   -144068.313
 -11.5699997   -144116.
 -11.3800001   -144135.281
 -11.1899996   -144118.609
 -11.   -144072.734
 -10.8100004   -144012.297
 -10.6199999   -143957.422
 -10.4300003   -143926.344
 -10.2399998   -143930.297
 -10.0500002   -143970.
 -9.85999966   -144033.516
 -9.67000008   -144105.969
 -9.47999954   -144165.547
 -9.28999996   -144197.156
 -9.10000038   -144193.703
 -8.90999985   -144153.953
 -8.72000027   -144091.641
 -8.52999973   -144019.797
 -8.34000015   -143958.031
 -8.14999962   -143918.656
 -7.96000004   -143909.438
 -7.76999998   -143929.484
 -7.57999992   -143967.484
 -7.38999987   -144007.563
 -7.19999981   -144037.328
 -7.01000023   -144041.156
 -6.82000017   -144017.656
 -6.63000011   -143970.781
 -6.44000006   -143912.781
 -6.25   -143861.266
 -6.05999994   -143832.109
 -5.86999989   -143835.047
 -5.67999983   -143871.375
 -5.48999977   -143934.281
 -5.30000019   -144005.391
 -5.11000013   -144071.391
 -4.92000008   -144116.219
 -4.73000002   -144130.141
 -4.53999996   -144115.219
 -4.3499999   -144078.859
 -4.15999985   -144033.031
 -3.97000003   -143990.891
 -3.77999997   -143969.063
 -3.58999991   -143971.922
 -3.4000001   -143997.594
 -3.21000004   -144039.828
 -3.01999998   -144085.109
 -2.82999992   -144118.094
 -2.6400001   -144127.234
 -2.45000005   -144106.734
 -2.25999999   -144054.203
 -2.06999993   -143979.188
 -1.88   -143899.234
 -1.69000006   -143834.125
 -1.5   -143804.422
 -1.30999994   -143815.156
 -1.12   -143865.672
 -0.930000007   -143941.156
 -0.74000001   -144020.328
 -0.550000012   -144083.25
 -0.360000014   -144110.078
 -0.170000002   -144097.109
 1.999999955E-2   -144050.594
 0.209999993   -143986.047
 0.400000006   -143925.266
 0.589999974   -143889.141
 0.779999971   -143884.313
 0.970000029   -143912.563
 1.15999997   -143959.844
 1.35000002   -144008.297
 1.53999996   -144037.141
 1.73000002   -144038.203
 1.91999996   -144008.797
 2.1099999   -143960.484
 2.29999995   -143904.094
 2.49000001   -143857.031
 2.68000007   -143835.109
 2.86999989   -143842.984
 3.05999994   -143879.703
 3.25   -143934.828
 3.44000006   -143995.906
 3.63000011   -144046.375
 3.81999993   -144076.188
 4.01000023   -144083.891
 4.19999981   -144068.891
 4.38999987   -144040.375
 4.57999992   -144004.5
 4.76999998   -143971.781
 4.96000004   -143949.234
 5.1500001   -143944.469
 5.34000015   -143957.859
 5.53000021   -143985.672
 5.71999979   -144019.063
 5.90999985   -144049.
 6.0999999   -144062.813
 6.28999996   -144056.938
 6.48000002   -144033.906
 6.67000008   -143996.484
 6.86000013   -143958.828
 7.05000019   -143931.625
 7.23999977   -143928.391
 7.42999983   -143955.391
 7.61999989   -144010.75
 7.80999994   -144083.172
 8.   -144157.281
 8.18999958   -144216.719
 8.38000011   -144247.031
 8.56999969   -144246.297
 8.76000023   -144218.484
 8.94999981   -144173.484
 9.14000034   -144125.047
 9.32999992   -144083.25
 9.52000046   -144058.844
 9.71000004   -144051.516
 9.89999962   -144055.766
 10.0900002   -144065.406
 10.2799997   -144073.125
 10.4700003   -144070.969
 10.6599998   -144056.641
 10.8500004   -144037.844
 11.04   -144014.125
 11.2299995   -143993.5
 11.4200001   -143981.063
 11.6099997   -143982.297
 11.8000002   -144001.719
 11.9899998   -144035.313
 12.1800003   -144078.859
 12.3699999   -144125.484
 12.5600004   -144162.609
 12.75   -144183.859
 12.9399996   -144183.078
 13.1300001   -144157.438
 13.3199997   -144110.484
 13.5100002   -144051.813
 13.6999998   -143988.938
 13.8900003   -143934.563
 14.0799999   -143900.109
 14.2700005   -143888.594
 14.46   -143900.391
 14.6499996   -143925.047
 14.8400002   -143954.563
 15.0299997   -143974.75
 15.2200003   -143984.266
 15.4099998   -143983.438
 15.6000004   -143976.016
 15.79   -143966.75
 15.9799995   -143962.891
 16.1700001   -143970.609
 16.3600006   -143988.813
 16.5499992   -144020.781
 16.7399998   -144055.094
 16.9300003   -144095.438
 17.1200008   -144132.578
 17.3099995   -144160.266
 17.5   -144171.984
 17.6900005   -144168.203
 17.8799992   -144146.078
 18.0699997   -144113.688
 18.2600002   -144079.172
 18.4500008   -144058.984
 18.6399994   -144066.438
 18.8299999   -144109.063
 19.0200005   -144179.313
 19.2099991   -144261.063
 19.3999996   -144333.75
 19.5900002   -144375.172
 19.7800007   -144377.219
 19.9699993   -144337.781
 20.1599998   -144278.781
 20.3500004   -144222.891
 20.5400009   -144192.188
 20.7299995   -144200.719
 20.9200001   -144248.328
 21.1100006   -144316.203
 21.2999992   -144378.344
 21.4899998   -144413.813
 21.6800003   -144406.172
 21.8700008   -144354.234
 22.0599995   -144273.516
 22.25   -144184.297
 22.4400005   -144110.734
 22.6299992   -144069.422
 22.8199997   -144069.609
 23.0100002   -144105.766
 23.2000008   -144164.641
 23.3899994   -144223.953
 23.5799999   -144270.578
 23.7700005   -144291.094
 23.9599991   -144282.172
 24.1499996   -144250.797
 24.3400002   -144207.625
 24.5300007   -144168.734
 24.7199993   -144143.313
 24.9099998   -144139.125
 25.1000004   -144155.875
 25.2900009   -144188.203
 25.4799995   -144228.984
 25.6700001   -144267.281
 25.8600006   -144296.281
 26.0499992   -144311.172
 26.2399998   -144309.047
 26.4300003   -144293.594
 26.6200008   -144267.188
 26.8099995   -144241.469
