 -30.   10341586.
 -29.8099995   10343696.
 -29.6200008   10345806.
 -29.4300003   10347916.
 -29.2399998   10350027.
 -29.0499992   10352144.
 -28.8600006   10354264.
 -28.6700001   10356386.
 -28.4799995   10358503.
 -28.2900009   10360616.
 -28.1000004   10362725.
 -27.9099998   10364833.
 -27.7199993   10366944.
 -27.5300007   10369057.
 -27.3400002   10371171.
 -27.1499996   10373286.
 -26.9599991   10375401.
 -26.7700005   10377520.
 -26.5799999   10379641.
 -26.3899994   10381760.
 -26.2000008   10383873.
 -26.0100002   10385979.
 -25.8199997   10388084.
 -25.6299992   10390197.
 -25.4400005   10392320.
 -25.25   10394448.
 -25.0599995   10396572.
 -24.8700008   10398693.
 -24.6800003   10400810.
 -24.4899998   10402933.
 -24.2999992   10405064.
 -24.1100006   10407192.
 -23.9200001   10409315.
 -23.7299995   10411431.
 -23.5400009   10413545.
 -23.3500004   10415663.
 -23.1599998   10417789.
 -22.9699993   10419912.
 -22.7800007   10422027.
 -22.5900002   10424124.
 -22.3999996   10426219.
 -22.2099991   10428318.
 -22.0200005   10430423.
 -21.8299999   10432529.
 -21.6399994   10434625.
 -21.4500008   10436709.
 -21.2600002   10438796.
 -21.0699997   10440893.
 -20.8799992   10443006.
 -20.6900005   10445124.
 -20.5   10447235.
 -20.3099995   10449335.
 -20.1200008   10451432.
 -19.9300003   10453535.
 -19.7399998   10455650.
 -19.5499992   10457766.
 -19.3600006   10459872.
 -19.1700001   10461972.
 -18.9799995   10464072.
 -18.7900009   10466187.
 -18.6000004   10468319.
 -18.4099998   10470451.
 -18.2199993   10472572.
 -18.0300007   10474675.
 -17.8400002   10476771.
 -17.6499996   10478875.
 -17.4599991   10480988.
 -17.2700005   10483105.
 -17.0799999   10485216.
 -16.8899994   10487314.
 -16.7000008   10489414.
 -16.5100002   10491522.
 -16.3199997   10493644.
 -16.1299992   10495771.
 -15.9399996   10497894.
 -15.75   10500010.
 -15.5600004   10502119.
 -15.3699999   10504238.
 -15.1800003   10506365.
 -14.9899998   10508498.
 -14.8000002   10510628.
 -14.6099997   10512750.
 -14.4200001   10514871.
 -14.2299995   10516994.
 -14.04   10519123.
 -13.8500004   10521258.
 -13.6599998   10523388.
 -13.4700003   10525513.
 -13.2799997   10527625.
 -13.0900002   10529736.
 -12.8999996   10531843.
 -12.71   10533956.
 -12.5200005   10536072.
 -12.3299999   10538194.
 -12.1400003   10540317.
 -11.9499998   10542440.
 -11.7600002   10544564.
 -11.5699997   10546686.
 -11.3800001   10548811.
 -11.1899996   10550936.
 -11.   10553064.
 -10.8100004   10555191.
 -10.6199999   10557322.
 -10.4300003   10559460.
 -10.2399998   10561604.
 -10.0500002   10563748.
 -9.85999966   10565886.
 -9.67000008   10568014.
 -9.47999954   10570134.
 -9.28999996   10572254.
 -9.10000038   10574380.
 -8.90999985   10576512.
 -8.72000027   10578646.
 -8.52999973   10580780.
 -8.34000015   10582917.
 -8.14999962   10585062.
 -7.96000004   10587214.
 -7.76999998   10589371.
 -7.57999992   10591522.
 -7.38999987   10593667.
 -7.19999981   10595812.
 -7.01000023   10597963.
 -6.82000017   10600121.
 -6.63000011   10602281.
 -6.44000006   10604435.
 -6.25   10606584.
 -6.05999994   10608732.
 -5.86999989   10610890.
 -5.67999983   10613058.
 -5.48999977   10615228.
 -5.30000019   10617398.
 -5.11000013   10619559.
 -4.92000008   10621719.
 -4.73000002   10623881.
 -4.53999996   10626037.
 -4.3499999   10628186.
 -4.15999985   10630322.
 -3.97000003   10632449.
 -3.77999997   10634579.
 -3.58999991   10636719.
 -3.4000001   10638865.
 -3.21000004   10641010.
 -3.01999998   10643146.
 -2.82999992   10645275.
 -2.6400001   10647403.
 -2.45000005   10649533.
 -2.25999999   10651664.
 -2.06999993   10653793.
 -1.88   10655915.
 -1.69000006   10658033.
 -1.5   10660158.
 -1.30999994   10662293.
 -1.12   10664431.
 -0.930000007   10666562.
 -0.74000001   10668684.
 -0.550000012   10670802.
 -0.360000014   10672929.
 -0.170000002   10675063.
 1.999999955E-2   10677205.
 0.209999993   10679345.
 0.400000006   10681480.
 0.589999974   10683617.
 0.779999971   10685762.
 0.970000029   10687917.
 1.15999997   10690071.
 1.35000002   10692215.
 1.53999996   10694348.
 1.73000002   10696480.
 1.91999996   10698621.
 2.1099999   10700774.
 2.29999995   10702926.
 2.49000001   10705065.
 2.68000007   10707189.
 2.86999989   10709311.
 3.05999994   10711440.
 3.25   10713568.
 3.44000006   10715692.
 3.63000011   10717801.
 3.81999993   10719902.
 4.01000023   10722012.
 4.19999981   10724140.
 4.38999987   10726286.
 4.57999992   10728430.
 4.76999998   10730562.
 4.96000004   10732678.
 5.1500001   10734800.
 5.34000015   10736939.
 5.53000021   10739095.
 5.71999979   10741255.
 5.90999985   10743402.
 6.0999999   10745537.
 6.28999996   10747678.
 6.48000002   10749832.
 6.67000008   10751995.
 6.86000013   10754151.
 7.05000019   10756289.
 7.23999977   10758413.
 7.42999983   10760540.
 7.61999989   10762689.
 7.80999994   10764849.
 8.   10767002.
 8.18999958   10769130.
 8.38000011   10771236.
 8.56999969   10773340.
 8.76000023   10775459.
 8.94999981   10777592.
 9.14000034   10779722.
 9.32999992   10781841.
 9.52000046   10783953.
 9.71000004   10786077.
 9.89999962   10788225.
 10.0900002   10790387.
 10.2799997   10792538.
 10.4700003   10794665.
 10.6599998   10796780.
 10.8500004   10798903.
 11.04   10801052.
 11.2299995   10803212.
 11.4200001   10805359.
 11.6099997   10807484.
 11.8000002   10809590.
 11.9899998   10811708.
 12.1800003   10813844.
 12.3699999   10815991.
 12.5600004   10818128.
 12.75   10820251.
 12.9399996   10822368.
 13.1300001   10824505.
 13.3199997   10826670.
 13.5100002   10828849.
 13.6999998   10831013.
 13.8900003   10833148.
 14.0799999   10835269.
 14.2700005   10837398.
 14.46   10839549.
 14.6499996   10841708.
 14.8400002   10843858.
 15.0299997   10845985.
 15.2200003   10848102.
 15.4099998   10850221.
 15.6000004   10852350.
 15.79   10854483.
 15.9799995   10856599.
 16.1700001   10858698.
 16.3600006   10860786.
 16.5499992   10862887.
 16.7399998   10865008.
 16.9300003   10867139.
 17.1200008   10869264.
 17.3099995   10871375.
 17.5   10873477.
 17.6900005   10875589.
 17.8799992   10877715.
 18.0699997   10879849.
 18.2600002   10881983.
 18.4500008   10884109.
 18.6399994   10886232.
 18.8299999   10888355.
 19.0200005   10890486.
 19.2099991   10892616.
 19.3999996   10894741.
 19.5900002   10896856.
 19.7800007   10898967.
 19.9699993   10901083.
 20.1599998   10903207.
 20.3500004   10905340.
 20.5400009   10907479.
 20.7299995   10909617.
 20.9200001   10911754.
 21.1100006   10913887.
 21.2999992   10916016.
 21.4899998   10918147.
 21.6800003   10920277.
 21.8700008   10922409.
 22.0599995   10924540.
 22.25   10926668.
 22.4400005   10928792.
 22.6299992   10930914.
 22.8199997   10933043.
 23.0100002   10935179.
 23.2000008   10937316.
 23.3899994   10939451.
 23.5799999   10941576.
 23.7700005   10943699.
 23.9599991   10945823.
 24.1499996   10947957.
 24.3400002   10950095.
 24.5300007   10952224.
 24.7199993   10954339.
 24.9099998   10956441.
 25.1000004   10958545.
 25.2900009   10960658.
 25.4799995   10962775.
 25.6700001   10964891.
 25.8600006   10966995.
 26.0499992   10969093.
 26.2399998   10971199.
 26.4300003   10973321.
 26.6200008   10975457.
 26.8099995   10977588.
