 -30.   9253193.
 -29.8099995   9255086.
 -29.6200008   9256981.
 -29.4300003   9258876.
 -29.2399998   9260767.
 -29.0499992   9262660.
 -28.8600006   9264554.
 -28.6700001   9266453.
 -28.4799995   9268351.
 -28.2900009   9270247.
 -28.1000004   9272141.
 -27.9099998   9274034.
 -27.7199993   9275930.
 -27.5300007   9277830.
 -27.3400002   9279729.
 -27.1499996   9281626.
 -26.9599991   9283524.
 -26.7700005   9285417.
 -26.5799999   9287314.
 -26.3899994   9289212.
 -26.2000008   9291110.
 -26.0100002   9293007.
 -25.8199997   9294903.
 -25.6299992   9296798.
 -25.4400005   9298694.
 -25.25   9300591.
 -25.0599995   9302492.
 -24.8700008   9304389.
 -24.6800003   9306285.
 -24.4899998   9308177.
 -24.2999992   9310072.
 -24.1100006   9311967.
 -23.9200001   9313867.
 -23.7299995   9315765.
 -23.5400009   9317660.
 -23.3500004   9319553.
 -23.1599998   9321448.
 -22.9699993   9323347.
 -22.7800007   9325251.
 -22.5900002   9327152.
 -22.3999996   9329046.
 -22.2099991   9330937.
 -22.0200005   9332831.
 -21.8299999   9334727.
 -21.6399994   9336631.
 -21.4500008   9338532.
 -21.2600002   9340427.
 -21.0699997   9342319.
 -20.8799992   9344215.
 -20.6900005   9346116.
 -20.5   9348022.
 -20.3099995   9349925.
 -20.1200008   9351822.
 -19.9300003   9353714.
 -19.7399998   9355612.
 -19.5499992   9357516.
 -19.3600006   9359423.
 -19.1700001   9361328.
 -18.9799995   9363226.
 -18.7900009   9365122.
 -18.6000004   9367021.
 -18.4099998   9368925.
 -18.2199993   9370831.
 -18.0300007   9372735.
 -17.8400002   9374634.
 -17.6499996   9376534.
 -17.4599991   9378435.
 -17.2700005   9380344.
 -17.0799999   9382257.
 -16.8899994   9384167.
 -16.7000008   9386073.
 -16.5100002   9387975.
 -16.3199997   9389878.
 -16.1299992   9391786.
 -15.9399996   9393698.
 -15.75   9395607.
 -15.5600004   9397513.
 -15.3699999   9399415.
 -15.1800003   9401318.
 -14.9899998   9403226.
 -14.8000002   9405138.
 -14.6099997   9407050.
 -14.4200001   9408956.
 -14.2299995   9410856.
 -14.04   9412756.
 -13.8500004   9414663.
 -13.6599998   9416573.
 -13.4700003   9418483.
 -13.2799997   9420389.
 -13.0900002   9422292.
 -12.8999996   9424194.
 -12.71   9426101.
 -12.5200005   9428012.
 -12.3299999   9429921.
 -12.1400003   9431829.
 -11.9499998   9433729.
 -11.7600002   9435630.
 -11.5699997   9437535.
 -11.3800001   9439442.
 -11.1899996   9441350.
 -11.   9443253.
 -10.8100004   9445154.
 -10.6199999   9447054.
 -10.4300003   9448957.
 -10.2399998   9450861.
 -10.0500002   9452766.
 -9.85999966   9454666.
 -9.67000008   9456566.
 -9.47999954   9458468.
 -9.28999996   9460373.
 -9.10000038   9462279.
 -8.90999985   9464186.
 -8.72000027   9466089.
 -8.52999973   9467988.
 -8.34000015   9469887.
 -8.14999962   9471790.
 -7.96000004   9473695.
 -7.76999998   9475601.
 -7.57999992   9477504.
 -7.38999987   9479406.
 -7.19999981   9481309.
 -7.01000023   9483216.
 -6.82000017   9485126.
 -6.63000011   9487035.
 -6.44000006   9488942.
 -6.25   9490844.
 -6.05999994   9492744.
 -5.86999989   9494647.
 -5.67999983   9496552.
 -5.48999977   9498457.
 -5.30000019   9500359.
 -5.11000013   9502262.
 -4.92000008   9504166.
 -4.73000002   9506076.
 -4.53999996   9507990.
 -4.3499999   9509908.
 -4.15999985   9511822.
 -3.97000003   9513734.
 -3.77999997   9515647.
 -3.58999991   9517563.
 -3.4000001   9519481.
 -3.21000004   9521397.
 -3.01999998   9523311.
 -2.82999992   9525223.
 -2.6400001   9527133.
 -2.45000005   9529050.
 -2.25999999   9530972.
 -2.06999993   9532891.
 -1.88   9534809.
 -1.69000006   9536726.
 -1.5   9538644.
 -1.30999994   9540562.
 -1.12   9542484.
 -0.930000007   9544406.
 -0.74000001   9546324.
 -0.550000012   9548243.
 -0.360000014   9550161.
 -0.170000002   9552081.
 1.999999955E-2   9554001.
 0.209999993   9555921.
 0.400000006   9557838.
 0.589999974   9559751.
 0.779999971   9561661.
 0.970000029   9563579.
 1.15999997   9565499.
 1.35000002   9567421.
 1.53999996   9569338.
 1.73000002   9571258.
 1.91999996   9573179.
 2.1099999   9575100.
 2.29999995   9577023.
 2.49000001   9578947.
 2.68000007   9580865.
 2.86999989   9582780.
 3.05999994   9584696.
 3.25   9586610.
 3.44000006   9588530.
 3.63000011   9590453.
 3.81999993   9592374.
 4.01000023   9594296.
 4.19999981   9596215.
 4.38999987   9598136.
 4.57999992   9600055.
 4.76999998   9601973.
 4.96000004   9603890.
 5.1500001   9605803.
 5.34000015   9607717.
 5.53000021   9609635.
 5.71999979   9611555.
 5.90999985   9613478.
 6.0999999   9615399.
 6.28999996   9617319.
 6.48000002   9619239.
 6.67000008   9621156.
 6.86000013   9623074.
 7.05000019   9624989.
 7.23999977   9626903.
 7.42999983   9628819.
 7.61999989   9630732.
 7.80999994   9632647.
 8.   9634563.
 8.18999958   9636478.
 8.38000011   9638392.
 8.56999969   9640305.
 8.76000023   9642218.
 8.94999981   9644134.
 9.14000034   9646051.
 9.32999992   9647970.
 9.52000046   9649887.
 9.71000004   9651807.
 9.89999962   9653724.
 10.0900002   9655643.
 10.2799997   9657560.
 10.4700003   9659479.
 10.6599998   9661398.
 10.8500004   9663317.
 11.04   9665237.
 11.2299995   9667157.
 11.4200001   9669074.
 11.6099997   9670990.
 11.8000002   9672907.
 11.9899998   9674825.
 12.1800003   9676745.
 12.3699999   9678667.
 12.5600004   9680588.
 12.75   9682513.
 12.9399996   9684439.
 13.1300001   9686365.
 13.3199997   9688291.
 13.5100002   9690212.
 13.6999998   9692130.
 13.8900003   9694051.
 14.0799999   9695974.
 14.2700005   9697901.
 14.46   9699827.
 14.6499996   9701749.
 14.8400002   9703671.
 15.0299997   9705592.
 15.2200003   9707512.
 15.4099998   9709439.
 15.6000004   9711365.
 15.79   9713289.
 15.9799995   9715214.
 16.1700001   9717140.
 16.3600006   9719068.
 16.5499992   9720997.
 16.7399998   9722928.
 16.9300003   9724857.
 17.1200008   9726784.
 17.3099995   9728711.
 17.5   9730641.
 17.6900005   9732569.
 17.8799992   9734498.
 18.0699997   9736424.
 18.2600002   9738352.
 18.4500008   9740277.
 18.6399994   9742203.
 18.8299999   9744128.
 19.0200005   9746053.
 19.2099991   9747978.
 19.3999996   9749900.
 19.5900002   9751821.
 19.7800007   9753739.
 19.9699993   9755661.
 20.1599998   9757588.
 20.3500004   9759519.
 20.5400009   9761449.
 20.7299995   9763378.
 20.9200001   9765301.
 21.1100006   9767224.
 21.2999992   9769151.
 21.4899998   9771078.
 21.6800003   9773006.
 21.8700008   9774932.
 22.0599995   9776854.
 22.25   9778776.
 22.4400005   9780701.
 22.6299992   9782628.
 22.8199997   9784556.
 23.0100002   9786481.
 23.2000008   9788404.
 23.3899994   9790326.
 23.5799999   9792249.
 23.7700005   9794173.
 23.9599991   9796097.
 24.1499996   9798018.
 24.3400002   9799938.
 24.5300007   9801859.
 24.7199993   9803784.
 24.9099998   9805712.
 25.1000004   9807643.
 25.2900009   9809572.
 25.4799995   9811497.
 25.6700001   9813418.
 25.8600006   9815341.
 26.0499992   9817264.
 26.2399998   9819187.
 26.4300003   9821108.
 26.6200008   9823024.
 26.8099995   9824936.
