 -30.   1618849.63
 -29.8099995   1619183.38
 -29.6200008   1619520.25
 -29.4300003   1619859.13
 -29.2399998   1620197.75
 -29.0499992   1620534.
 -28.8600006   1620869.5
 -28.6700001   1621201.5
 -28.4799995   1621533.38
 -28.2900009   1621865.75
 -28.1000004   1622198.38
 -27.9099998   1622533.88
 -27.7199993   1622872.63
 -27.5300007   1623213.
 -27.3400002   1623553.13
 -27.1499996   1623895.25
 -26.9599991   1624234.5
 -26.7700005   1624573.13
 -26.5799999   1624906.88
 -26.3899994   1625238.38
 -26.2000008   1625569.
 -26.0100002   1625897.63
 -25.8199997   1626230.63
 -25.6299992   1626562.5
 -25.4400005   1626897.63
 -25.25   1627235.63
 -25.0599995   1627575.25
 -24.8700008   1627915.
 -24.6800003   1628251.38
 -24.4899998   1628583.38
 -24.2999992   1628913.88
 -24.1100006   1629240.63
 -23.9200001   1629565.88
 -23.7299995   1629890.
 -23.5400009   1630218.5
 -23.3500004   1630546.63
 -23.1599998   1630878.88
 -22.9699993   1631214.13
 -22.7800007   1631548.38
 -22.5900002   1631879.5
 -22.3999996   1632207.63
 -22.2099991   1632531.88
 -22.0200005   1632852.
 -21.8299999   1633170.
 -21.6399994   1633487.5
 -21.4500008   1633806.63
 -21.2600002   1634127.13
 -21.0699997   1634450.88
 -20.8799992   1634777.63
 -20.6900005   1635103.25
 -20.5   1635428.13
 -20.3099995   1635751.
 -20.1200008   1636069.5
 -19.9300003   1636384.
 -19.7399998   1636694.38
 -19.5499992   1637006.38
 -19.3600006   1637318.5
 -19.1700001   1637634.63
 -18.9799995   1637955.75
 -18.7900009   1638279.25
 -18.6000004   1638607.
 -18.4099998   1638933.
 -18.2199993   1639257.13
 -18.0300007   1639577.75
 -17.8400002   1639895.88
 -17.6499996   1640209.13
 -17.4599991   1640520.88
 -17.2700005   1640834.
 -17.0799999   1641150.5
 -16.8899994   1641471.75
 -16.7000008   1641797.5
 -16.5100002   1642126.
 -16.3199997   1642455.88
 -16.1299992   1642781.88
 -15.9399996   1643103.25
 -15.75   1643419.25
 -15.5600004   1643730.25
 -15.3699999   1644037.25
 -15.1800003   1644346.25
 -14.9899998   1644658.13
 -14.8000002   1644978.13
 -14.6099997   1645302.75
 -14.4200001   1645635.
 -14.2299995   1645965.25
 -14.04   1646295.25
 -13.8500004   1646619.
 -13.6599998   1646934.75
 -13.4700003   1647243.75
 -13.2799997   1647548.75
 -13.0900002   1647854.
 -12.8999996   1648162.25
 -12.71   1648478.13
 -12.5200005   1648801.13
 -12.3299999   1649130.38
 -12.1400003   1649459.63
 -11.9499998   1649787.13
 -11.7600002   1650108.38
 -11.5699997   1650422.63
 -11.3800001   1650731.
 -11.1899996   1651034.38
 -11.   1651337.38
 -10.8100004   1651644.63
 -10.6199999   1651959.63
 -10.4300003   1652280.
 -10.2399998   1652603.88
 -10.0500002   1652930.25
 -9.85999966   1653254.88
 -9.67000008   1653572.75
 -9.47999954   1653885.88
 -9.28999996   1654191.75
 -9.10000038   1654494.75
 -8.90999985   1654797.75
 -8.72000027   1655106.13
 -8.52999973   1655418.25
 -8.34000015   1655739.25
 -8.14999962   1656065.63
 -7.96000004   1656394.88
 -7.76999998   1656723.13
 -7.57999992   1657047.25
 -7.38999987   1657366.
 -7.19999981   1657675.63
 -7.01000023   1657981.13
 -6.82000017   1658284.63
 -6.63000011   1658590.5
 -6.44000006   1658900.38
 -6.25   1659216.13
 -6.05999994   1659537.
 -5.86999989   1659863.5
 -5.67999983   1660190.
 -5.48999977   1660510.5
 -5.30000019   1660826.25
 -5.11000013   1661135.88
 -4.92000008   1661438.75
 -4.73000002   1661741.25
 -4.53999996   1662044.
 -4.3499999   1662354.63
 -4.15999985   1662669.5
 -3.97000003   1662992.88
 -3.77999997   1663320.13
 -3.58999991   1663646.75
 -3.4000001   1663969.13
 -3.21000004   1664284.75
 -3.01999998   1664592.13
 -2.82999992   1664895.5
 -2.6400001   1665196.5
 -2.45000005   1665498.88
 -2.25999999   1665808.25
 -2.06999993   1666124.88
 -1.88   1666446.63
 -1.69000006   1666772.
 -1.5   1667095.88
 -1.30999994   1667413.75
 -1.12   1667725.75
 -0.930000007   1668029.38
 -0.74000001   1668329.75
 -0.550000012   1668627.63
 -0.360000014   1668928.38
 -0.170000002   1669234.63
 1.999999955E-2   1669546.38
 0.209999993   1669865.75
 0.400000006   1670188.38
 0.589999974   1670508.5
 0.779999971   1670823.5
 0.970000029   1671132.38
 1.15999997   1671434.88
 1.35000002   1671733.88
 1.53999996   1672033.75
 1.73000002   1672335.
 1.91999996   1672642.25
 2.1099999   1672953.
 2.29999995   1673269.38
 2.49000001   1673585.13
 2.68000007   1673898.63
 2.86999989   1674208.13
 3.05999994   1674511.88
 3.25   1674811.88
 3.44000006   1675111.88
 3.63000011   1675410.88
 3.81999993   1675714.5
 4.01000023   1676019.5
 4.19999981   1676327.63
 4.38999987   1676636.13
 4.57999992   1676944.38
 4.76999998   1677254.63
 4.96000004   1677562.13
 5.1500001   1677869.75
 5.34000015   1678177.5
 5.53000021   1678484.75
 5.71999979   1678789.13
 5.90999985   1679092.88
 6.0999999   1679393.63
 6.28999996   1679691.88
 6.48000002   1679988.5
 6.67000008   1680285.63
 6.86000013   1680585.25
 7.05000019   1680886.75
 7.23999977   1681191.
 7.42999983   1681494.38
 7.61999989   1681796.13
 7.80999994   1682093.75
 8.   1682387.5
 8.18999958   1682679.75
 8.38000011   1682973.25
 8.56999969   1683269.63
 8.76000023   1683570.75
 8.94999981   1683878.
 9.14000034   1684188.63
 9.32999992   1684499.88
 9.52000046   1684809.
 9.71000004   1685115.
 9.89999962   1685415.25
 10.0900002   1685714.25
 10.2799997   1686009.5
 10.4700003   1686308.75
 10.6599998   1686611.
 10.8500004   1686916.88
 11.04   1687223.88
 11.2299995   1687533.38
 11.4200001   1687838.
 11.6099997   1688140.25
 11.8000002   1688436.75
 11.9899998   1688731.13
 12.1800003   1689021.25
 12.3699999   1689311.38
 12.5600004   1689603.13
 12.75   1689896.5
 12.9399996   1690194.63
 13.1300001   1690496.5
 13.3199997   1690799.5
 13.5100002   1691103.5
 13.6999998   1691407.5
 13.8900003   1691708.25
 14.0799999   1692007.75
 14.2700005   1692304.5
 14.46   1692599.13
 14.6499996   1692893.88
 14.8400002   1693190.75
 15.0299997   1693490.38
 15.2200003   1693794.63
 15.4099998   1694101.75
 15.6000004   1694409.75
 15.79   1694717.88
 15.9799995   1695021.75
 16.1700001   1695321.
 16.3600006   1695617.5
 16.5499992   1695912.63
 16.7399998   1696205.38
 16.9300003   1696499.88
 17.1200008   1696798.75
 17.3099995   1697100.75
 17.5   1697407.
 17.6900005   1697712.88
 17.8799992   1698017.13
 18.0699997   1698316.75
 18.2600002   1698612.38
 18.4500008   1698901.38
 18.6399994   1699188.
 18.8299999   1699473.75
 19.0200005   1699761.88
 19.2099991   1700053.25
 19.3999996   1700349.25
 19.5900002   1700648.75
 19.7800007   1700950.
 19.9699993   1701249.5
 20.1599998   1701544.
 20.3500004   1701834.5
 20.5400009   1702119.63
 20.7299995   1702399.5
 20.9200001   1702680.
 21.1100006   1702963.63
 21.2999992   1703252.
 21.4899998   1703545.38
 21.6800003   1703845.63
 21.8700008   1704148.38
 22.0599995   1704452.25
 22.25   1704754.63
 22.4400005   1705055.
 22.6299992   1705350.5
 22.8199997   1705641.
 23.0100002   1705930.
 23.2000008   1706217.38
 23.3899994   1706506.38
 23.5799999   1706798.
 23.7700005   1707090.63
 23.9599991   1707384.75
 24.1499996   1707677.
 24.3400002   1707967.63
 24.5300007   1708254.38
 24.7199993   1708538.75
 24.9099998   1708819.25
 25.1000004   1709100.63
 25.2900009   1709379.88
 25.4799995   1709660.75
 25.6700001   1709945.13
 25.8600006   1710233.25
 26.0499992   1710521.75
 26.2399998   1710811.88
 26.4300003   1711104.13
 26.6200008   1711393.25
 26.8099995   1711683.
