 -30.   -5794518.5
 -29.8099995   -5795694.
 -29.6200008   -5796866.5
 -29.4300003   -5798036.
 -29.2399998   -5799204.
 -29.0499992   -5800374.
 -28.8600006   -5801549.
 -28.6700001   -5802724.5
 -28.4799995   -5803903.
 -28.2900009   -5805081.
 -28.1000004   -5806256.5
 -27.9099998   -5807427.
 -27.7199993   -5808593.
 -27.5300007   -5809756.
 -27.3400002   -5810915.
 -27.1499996   -5812075.5
 -26.9599991   -5813237.5
 -26.7700005   -5814404.
 -26.5799999   -5815572.5
 -26.3899994   -5816747.
 -26.2000008   -5817923.
 -26.0100002   -5819097.5
 -25.8199997   -5820268.
 -25.6299992   -5821433.
 -25.4400005   -5822592.
 -25.25   -5823747.
 -25.0599995   -5824901.5
 -24.8700008   -5826056.
 -24.6800003   -5827212.5
 -24.4899998   -5828373.5
 -24.2999992   -5829537.5
 -24.1100006   -5830702.5
 -23.9200001   -5831866.5
 -23.7299995   -5833030.
 -23.5400009   -5834186.5
 -23.3500004   -5835338.
 -23.1599998   -5836484.5
 -22.9699993   -5837630.
 -22.7800007   -5838776.
 -22.5900002   -5839924.
 -22.3999996   -5841076.
 -22.2099991   -5842231.5
 -22.0200005   -5843392.
 -21.8299999   -5844552.
 -21.6399994   -5845712.5
 -21.4500008   -5846870.5
 -21.2600002   -5848024.
 -21.0699997   -5849173.5
 -20.8799992   -5850319.5
 -20.6900005   -5851466.
 -20.5   -5852614.5
 -20.3099995   -5853764.5
 -20.1200008   -5854919.5
 -19.9300003   -5856077.5
 -19.7399998   -5857238.5
 -19.5499992   -5858399.5
 -19.3600006   -5859560.
 -19.1700001   -5860715.5
 -18.9799995   -5861871.
 -18.7900009   -5863022.
 -18.6000004   -5864171.5
 -18.4099998   -5865320.5
 -18.2199993   -5866473.
 -18.0300007   -5867626.
 -17.8400002   -5868783.
 -17.6499996   -5869942.5
 -17.4599991   -5871101.
 -17.2700005   -5872260.
 -17.0799999   -5873417.5
 -16.8899994   -5874570.
 -16.7000008   -5875722.
 -16.5100002   -5876870.
 -16.3199997   -5878015.5
 -16.1299992   -5879162.5
 -15.9399996   -5880310.5
 -15.75   -5881461.5
 -15.5600004   -5882615.
 -15.3699999   -5883771.
 -15.1800003   -5884929.5
 -14.9899998   -5886088.
 -14.8000002   -5887243.
 -14.6099997   -5888397.
 -14.4200001   -5889546.
 -14.2299995   -5890692.
 -14.04   -5891835.5
 -13.8500004   -5892978.5
 -13.6599998   -5894123.5
 -13.4700003   -5895271.5
 -13.2799997   -5896419.5
 -13.0900002   -5897571.5
 -12.8999996   -5898723.5
 -12.71   -5899874.5
 -12.5200005   -5901023.
 -12.3299999   -5902167.5
 -12.1400003   -5903308.5
 -11.9499998   -5904444.5
 -11.7600002   -5905579.5
 -11.5699997   -5906717.
 -11.3800001   -5907854.
 -11.1899996   -5908995.
 -11.   -5910140.5
 -10.8100004   -5911286.5
 -10.6199999   -5912433.5
 -10.4300003   -5913579.5
 -10.2399998   -5914722.
 -10.0500002   -5915857.5
 -9.85999966   -5916988.5
 -9.67000008   -5918119.
 -9.47999954   -5919250.5
 -9.28999996   -5920385.5
 -9.10000038   -5921526.
 -8.90999985   -5922668.5
 -8.72000027   -5923814.
 -8.52999973   -5924958.
 -8.34000015   -5926100.5
 -8.14999962   -5927236.5
 -7.96000004   -5928368.5
 -7.76999998   -5929495.
 -7.57999992   -5930620.
 -7.38999987   -5931744.5
 -7.19999981   -5932871.5
 -7.01000023   -5934002.5
 -6.82000017   -5935138.
 -6.63000011   -5936275.5
 -6.44000006   -5937416.
 -6.25   -5938555.
 -6.05999994   -5939691.
 -5.86999989   -5940822.5
 -5.67999983   -5941950.5
 -5.48999977   -5943075.
 -5.30000019   -5944196.
 -5.11000013   -5945317.5
 -4.92000008   -5946441.5
 -4.73000002   -5947569.
 -4.53999996   -5948702.
 -4.3499999   -5949839.5
 -4.15999985   -5950977.5
 -3.97000003   -5952113.
 -3.77999997   -5953247.
 -3.58999991   -5954373.5
 -3.4000001   -5955495.
 -3.21000004   -5956612.
 -3.01999998   -5957729.
 -2.82999992   -5958847.
 -2.6400001   -5959968.
 -2.45000005   -5961094.
 -2.25999999   -5962222.5
 -2.06999993   -5963352.5
 -1.88   -5964481.
 -1.69000006   -5965607.5
 -1.5   -5966729.5
 -1.30999994   -5967847.5
 -1.12   -5968964.
 -0.930000007   -5970079.5
 -0.74000001   -5971198.
 -0.550000012   -5972322.5
 -0.360000014   -5973450.5
 -0.170000002   -5974583.5
 1.999999955E-2   -5975718.5
 0.209999993   -5976850.
 0.400000006   -5977978.5
 0.589999974   -5979099.5
 0.779999971   -5980214.5
 0.970000029   -5981325.
 1.15999997   -5982432.5
 1.35000002   -5983541.5
 1.53999996   -5984656.5
 1.73000002   -5985778.5
 1.91999996   -5986905.5
 2.1099999   -5988034.
 2.29999995   -5989163.5
 2.49000001   -5990288.5
 2.68000007   -5991406.5
 2.86999989   -5992519.5
 3.05999994   -5993624.
 3.25   -5994729.
 3.44000006   -5995834.5
 3.63000011   -5996945.5
 3.81999993   -5998062.5
 4.01000023   -5999185.
 4.19999981   -6000309.
 4.38999987   -6001436.5
 4.57999992   -6002559.
 4.76999998   -6003678.
 4.96000004   -6004789.5
 5.1500001   -6005894.5
 5.34000015   -6006994.5
 5.53000021   -6008092.
 5.71999979   -6009190.5
 5.90999985   -6010292.5
 6.0999999   -6011400.5
 6.28999996   -6012513.5
 6.48000002   -6013631.
 6.67000008   -6014750.
 6.86000013   -6015871.
 7.05000019   -6016985.5
 7.23999977   -6018093.5
 7.42999983   -6019198.
 7.61999989   -6020295.
 7.80999994   -6021392.
 8.   -6022490.
 8.18999958   -6023591.5
 8.38000011   -6024703.
 8.56999969   -6025817.
 8.76000023   -6026933.5
 8.94999981   -6028051.
 9.14000034   -6029166.
 9.32999992   -6030273.5
 9.52000046   -6031373.
 9.71000004   -6032466.5
 9.89999962   -6033553.5
 10.0900002   -6034640.
 10.2799997   -6035731.
 10.4700003   -6036826.5
 10.6599998   -6037927.
 10.8500004   -6039032.5
 11.04   -6040139.5
 11.2299995   -6041242.5
 11.4200001   -6042342.5
 11.6099997   -6043437.5
 11.8000002   -6044526.5
 11.9899998   -6045611.
 12.1800003   -6046695.5
 12.3699999   -6047782.
 12.5600004   -6048875.
 12.75   -6049976.
 12.9399996   -6051083.5
 13.1300001   -6052195.
 13.3199997   -6053308.
 13.5100002   -6054417.
 13.6999998   -6055522.
 13.8900003   -6056617.5
 14.0799999   -6057710.5
 14.2700005   -6058799.
 14.46   -6059888.5
 14.6499996   -6060983.5
 14.8400002   -6062083.5
 15.0299997   -6063187.
 15.2200003   -6064294.5
 15.4099998   -6065401.
 15.6000004   -6066503.
 15.79   -6067600.5
 15.9799995   -6068690.5
 16.1700001   -6069777.5
 16.3600006   -6070860.5
 16.5499992   -6071944.
 16.7399998   -6073032.
 16.9300003   -6074122.
 17.1200008   -6075217.5
 17.3099995   -6076316.5
 17.5   -6077416.
 17.6900005   -6078511.
 17.8799992   -6079599.
 18.0699997   -6080680.5
 18.2600002   -6081758.
 18.4500008   -6082833.
 18.6399994   -6083908.
 18.8299999   -6084990.5
 19.0200005   -6086078.
 19.2099991   -6087171.
 19.3999996   -6088270.
 19.5900002   -6089368.5
 19.7800007   -6090464.5
 19.9699993   -6091555.5
 20.1599998   -6092641.5
 20.3500004   -6093726.5
 20.5400009   -6094811.
 20.7299995   -6095895.
 20.9200001   -6096981.5
 21.1100006   -6098071.
 21.2999992   -6099160.5
 21.4899998   -6100251.5
 21.6800003   -6101344.
 21.8700008   -6102437.
 22.0599995   -6103526.5
 22.25   -6104614.5
 22.4400005   -6105702.5
 22.6299992   -6106786.
 22.8199997   -6107867.5
 23.0100002   -6108945.5
 23.2000008   -6110025.
 23.3899994   -6111105.
 23.5799999   -6112188.
 23.7700005   -6113275.
 23.9599991   -6114360.5
 24.1499996   -6115449.
 24.3400002   -6116533.
 24.5300007   -6117615.
 24.7199993   -6118691.
 24.9099998   -6119764.5
 25.1000004   -6120837.
 25.2900009   -6121911.
 25.4799995   -6122987.
 25.6700001   -6124067.
 25.8600006   -6125151.5
 26.0499992   -6126235.5
 26.2399998   -6127319.5
 26.4300003   -6128397.5
 26.6200008   -6129471.5
 26.8099995   -6130541.
