 -30.   297712.625
 -29.8099995   297830.344
 -29.6200008   297990.875
 -29.4300003   298174.188
 -29.2399998   298350.031
 -29.0499992   298498.563
 -28.8600006   298609.
 -28.6700001   298684.5
 -28.4799995   298739.688
 -28.2900009   298796.063
 -28.1000004   298875.188
 -27.9099998   298988.844
 -27.7199993   299145.438
 -27.5300007   299333.281
 -27.3400002   299536.469
 -27.1499996   299733.594
 -26.9599991   299902.563
 -26.7700005   300028.75
 -26.5799999   300111.781
 -26.3899994   300156.875
 -26.2000008   300185.906
 -26.0100002   300221.906
 -25.8199997   300284.125
 -25.6299992   300388.344
 -25.4400005   300534.531
 -25.25   300714.375
 -25.0599995   300908.5
 -24.8700008   301093.469
 -24.6800003   301247.063
 -24.4899998   301356.281
 -24.2999992   301421.938
 -24.1100006   301456.25
 -23.9200001   301484.781
 -23.7299995   301529.125
 -23.5400009   301608.531
 -23.3500004   301731.563
 -23.1599998   301889.219
 -22.9699993   302063.031
 -22.7800007   302231.031
 -22.5900002   302371.906
 -22.3999996   302472.219
 -22.2099991   302528.
 -22.0200005   302547.906
 -21.8299999   302554.563
 -21.6399994   302569.
 -21.4500008   302608.656
 -21.2600002   302685.
 -21.0699997   302797.344
 -20.8799992   302935.438
 -20.6900005   303083.313
 -20.5   303225.938
 -20.3099995   303346.344
 -20.1200008   303438.906
 -19.9300003   303502.375
 -19.7399998   303546.344
 -19.5499992   303580.406
 -19.3600006   303623.5
 -19.1700001   303685.375
 -18.9799995   303774.719
 -18.7900009   303888.469
 -18.6000004   304018.75
 -18.4099998   304149.375
 -18.2199993   304266.781
 -18.0300007   304358.75
 -17.8400002   304422.563
 -17.6499996   304462.25
 -17.4599991   304488.594
 -17.2700005   304519.594
 -17.0799999   304571.781
 -16.8899994   304654.938
 -16.7000008   304772.25
 -16.5100002   304911.625
 -16.3199997   305057.656
 -16.1299992   305190.813
 -15.9399996   305293.25
 -15.75   305361.313
 -15.5600004   305395.844
 -15.3699999   305408.219
 -15.1800003   305419.75
 -14.9899998   305445.219
 -14.8000002   305497.031
 -14.6099997   305581.531
 -14.4200001   305693.125
 -14.2299995   305817.438
 -14.04   305938.688
 -13.8500004   306041.938
 -13.6599998   306116.906
 -13.4700003   306165.219
 -13.2799997   306192.938
 -13.0900002   306215.375
 -12.8999996   306247.406
 -12.71   306297.
 -12.5200005   306372.656
 -12.3299999   306473.125
 -12.1400003   306591.219
 -11.9499998   306716.188
 -11.7600002   306829.406
 -11.5699997   306922.063
 -11.3800001   306987.031
 -11.1899996   307026.625
 -11.   307048.031
 -10.8100004   307064.094
 -10.6199999   307088.531
 -10.4300003   307133.594
 -10.2399998   307205.625
 -10.0500002   307306.938
 -9.85999966   307430.719
 -9.67000008   307559.781
 -9.47999954   307677.906
 -9.28999996   307769.656
 -9.10000038   307829.375
 -8.90999985   307858.344
 -8.72000027   307870.531
 -8.52999973   307881.5
 -8.34000015   307915.156
 -8.14999962   307978.219
 -7.96000004   308079.188
 -7.76999998   308207.531
 -7.57999992   308351.188
 -7.38999987   308483.688
 -7.19999981   308590.188
 -7.01000023   308658.531
 -6.82000017   308689.906
 -6.63000011   308696.5
 -6.44000006   308702.719
 -6.25   308727.5
 -6.05999994   308784.188
 -5.86999989   308879.906
 -5.67999983   309005.219
 -5.48999977   309143.25
 -5.30000019   309278.219
 -5.11000013   309391.656
 -4.92000008   309475.813
 -4.73000002   309530.094
 -4.53999996   309560.438
 -4.3499999   309582.313
 -4.15999985   309612.625
 -3.97000003   309661.469
 -3.77999997   309737.25
 -3.58999991   309841.125
 -3.4000001   309961.406
 -3.21000004   310090.688
 -3.01999998   310213.844
 -2.82999992   310319.031
 -2.6400001   310395.563
 -2.45000005   310443.094
 -2.25999999   310465.563
 -2.06999993   310475.781
 -1.88   310492.906
 -1.69000006   310531.875
 -1.5   310605.781
 -1.30999994   310715.875
 -1.12   310851.313
 -0.930000007   310993.313
 -0.74000001   311126.469
 -0.550000012   311229.469
 -0.360000014   311295.5
 -0.170000002   311326.625
 1.999999955E-2   311334.75
 0.209999993   311339.406
 0.400000006   311362.906
 0.589999974   311418.219
 0.779999971   311515.5
 0.970000029   311646.438
 1.15999997   311790.25
 1.35000002   311930.906
 1.53999996   312046.313
 1.73000002   312126.813
 1.91999996   312173.594
 2.1099999   312193.313
 2.29999995   312206.156
 2.49000001   312231.438
 2.68000007   312286.781
 2.86999989   312377.563
 3.05999994   312498.656
 3.25   312637.281
 3.44000006   312774.
 3.63000011   312890.563
 3.81999993   312975.75
 4.01000023   313029.156
 4.19999981   313056.188
 4.38999987   313073.
 4.57999992   313091.781
 4.76999998   313126.938
 4.96000004   313189.875
 5.1500001   313282.
 5.34000015   313397.875
 5.53000021   313527.313
 5.71999979   313654.
 5.90999985   313766.406
 6.0999999   313852.406
 6.28999996   313913.156
 6.48000002   313948.094
 6.67000008   313969.344
 6.86000013   313991.875
 7.05000019   314028.25
 7.23999977   314093.563
 7.42999983   314192.531
 7.61999989   314320.
 7.80999994   314462.625
 8.   314600.094
 8.18999958   314711.844
 8.38000011   314788.219
 8.56999969   314826.25
 8.76000023   314840.406
 8.94999981   314845.969
 9.14000034   314865.813
 9.32999992   314914.781
 9.52000046   315000.813
 9.71000004   315122.781
 9.89999962   315264.563
 10.0900002   315408.375
 10.2799997   315536.156
 10.4700003   315635.25
 10.6599998   315700.063
 10.8500004   315741.188
 11.04   315773.844
 11.2299995   315811.469
 11.4200001   315874.031
 11.6099997   315968.188
 11.8000002   316093.375
 11.9899998   316240.656
 12.1800003   316394.313
 12.3699999   316532.281
 12.5600004   316640.063
 12.75   316709.844
 12.9399996   316742.5
 13.1300001   316750.563
 13.3199997   316750.25
 13.5100002   316762.719
 13.6999998   316797.844
 13.8900003   316860.906
 14.0799999   316947.156
 14.2700005   317047.125
 14.46   317145.188
 14.6499996   317228.938
 14.8400002   317288.688
 15.0299997   317323.
 15.2200003   317337.813
 15.4099998   317347.
 15.6000004   317360.125
 15.79   317395.188
 15.9799995   317460.063
 16.1700001   317556.969
 16.3600006   317683.313
 16.5499992   317826.625
 16.7399998   317969.281
 16.9300003   318098.469
 17.1200008   318201.375
 17.3099995   318274.375
 17.5   318321.219
 17.6900005   318358.844
 17.8799992   318405.75
 18.0699997   318476.563
 18.2600002   318582.125
 18.4500008   318719.313
 18.6399994   318874.844
 18.8299999   319034.625
 19.0200005   319173.781
 19.2099991   319281.656
 19.3999996   319355.094
 19.5900002   319397.938
 19.7800007   319426.031
 19.9699993   319454.938
 20.1599998   319508.313
 20.3500004   319590.219
 20.5400009   319702.344
 20.7299995   319836.969
 20.9200001   319980.125
 21.1100006   320113.438
 21.2999992   320224.25
 21.4899998   320308.125
 21.6800003   320363.844
 21.8700008   320399.406
 22.0599995   320428.219
 22.25   320466.313
 22.4400005   320524.406
 22.6299992   320613.438
 22.8199997   320727.813
 23.0100002   320857.156
 23.2000008   320985.219
 23.3899994   321095.656
 23.5799999   321176.969
 23.7700005   321226.
 23.9599991   321247.594
 24.1499996   321255.094
 24.3400002   321264.375
 24.5300007   321291.906
 24.7199993   321351.313
 24.9099998   321439.844
 25.1000004   321553.563
 25.2900009   321675.5
 25.4799995   321792.031
 25.6700001   321886.469
 25.8600006   321956.281
 26.0499992   322001.125
 26.2399998   322032.219
 26.4300003   322063.813
 26.6200008   322105.438
 26.8099995   322171.469
