 -30.   7906175.
 -29.8099995   7907803.5
 -29.6200008   7909432.
 -29.4300003   7911055.
 -29.2399998   7912668.5
 -29.0499992   7914284.
 -28.8600006   7915909.5
 -28.6700001   7917547.
 -28.4799995   7919187.5
 -28.2900009   7920818.
 -28.1000004   7922439.5
 -27.9099998   7924052.
 -27.7199993   7925670.5
 -27.5300007   7927301.
 -27.3400002   7928940.5
 -27.1499996   7930577.5
 -26.9599991   7932204.
 -26.7700005   7933822.5
 -26.5799999   7935442.
 -26.3899994   7937071.
 -26.2000008   7938704.5
 -26.0100002   7940330.
 -25.8199997   7941937.5
 -25.6299992   7943531.
 -25.4400005   7945124.5
 -25.25   7946726.
 -25.0599995   7948338.
 -24.8700008   7949948.5
 -24.6800003   7951546.
 -24.4899998   7953136.
 -24.2999992   7954726.
 -24.1100006   7956331.5
 -23.9200001   7957951.5
 -23.7299995   7959578.
 -23.5400009   7961197.5
 -23.3500004   7962810.
 -23.1599998   7964426.
 -22.9699993   7966060.5
 -22.7800007   7967709.
 -22.5900002   7969366.5
 -22.3999996   7971013.5
 -22.2099991   7972647.5
 -22.0200005   7974275.5
 -21.8299999   7975914.5
 -21.6399994   7977566.5
 -21.4500008   7979214.5
 -21.2600002   7980848.
 -21.0699997   7982464.5
 -20.8799992   7984075.5
 -20.6900005   7985697.
 -20.5   7987339.
 -20.3099995   7988988.5
 -20.1200008   7990632.
 -19.9300003   7992252.5
 -19.7399998   7993864.
 -19.5499992   7995478.
 -19.3600006   7997104.
 -19.1700001   7998737.
 -18.9799995   8000361.5
 -18.7900009   8001971.
 -18.6000004   8003578.
 -18.4099998   8005192.
 -18.2199993   8006828.5
 -18.0300007   8008478.
 -17.8400002   8010125.5
 -17.6499996   8011754.5
 -17.4599991   8013374.
 -17.2700005   8014991.
 -17.0799999   8016625.
 -16.8899994   8018272.5
 -16.7000008   8019920.5
 -16.5100002   8021559.5
 -16.3199997   8023187.
 -16.1299992   8024818.5
 -15.9399996   8026461.
 -15.75   8028114.
 -15.5600004   8029765.
 -15.3699999   8031404.
 -15.1800003   8033027.
 -14.9899998   8034649.
 -14.8000002   8036284.5
 -14.6099997   8037933.
 -14.4200001   8039581.5
 -14.2299995   8041218.
 -14.04   8042832.5
 -13.8500004   8044440.5
 -13.6599998   8046053.
 -13.4700003   8047682.
 -13.2799997   8049318.5
 -13.0900002   8050947.5
 -12.8999996   8052562.5
 -12.71   8054171.5
 -12.5200005   8055782.5
 -12.3299999   8057399.5
 -12.1400003   8059015.5
 -11.9499998   8060618.
 -11.7600002   8062207.
 -11.5699997   8063792.
 -11.3800001   8065391.
 -11.1899996   8067011.5
 -11.   8068646.
 -10.8100004   8070277.5
 -10.6199999   8071895.
 -10.4300003   8073503.5
 -10.2399998   8075116.
 -10.0500002   8076740.5
 -9.85999966   8078372.
 -9.67000008   8079998.
 -9.47999954   8081614.
 -9.28999996   8083222.5
 -9.10000038   8084838.
 -8.90999985   8086463.5
 -8.72000027   8088096.5
 -8.52999973   8089722.5
 -8.34000015   8091337.
 -8.14999962   8092941.
 -7.96000004   8094546.5
 -7.76999998   8096162.5
 -7.57999992   8097791.
 -7.38999987   8099423.
 -7.19999981   8101050.
 -7.01000023   8102670.
 -6.82000017   8104290.
 -6.63000011   8105917.5
 -6.44000006   8107552.5
 -6.25   8109188.5
 -6.05999994   8110814.5
 -5.86999989   8112429.5
 -5.67999983   8114039.5
 -5.48999977   8115653.5
 -5.30000019   8117273.5
 -5.11000013   8118900.
 -4.92000008   8120526.
 -4.73000002   8122145.5
 -4.53999996   8123763.
 -4.3499999   8125383.
 -4.15999985   8127012.
 -3.97000003   8128651.
 -3.77999997   8130291.
 -3.58999991   8131924.5
 -3.4000001   8133549.
 -3.21000004   8135173.5
 -3.01999998   8136803.5
 -2.82999992   8138445.5
 -2.6400001   8140089.
 -2.45000005   8141725.5
 -2.25999999   8143351.5
 -2.06999993   8144969.5
 -1.88   8146588.
 -1.69000006   8148213.
 -1.5   8149843.
 -1.30999994   8151473.
 -1.12   8153094.5
 -0.930000007   8154710.5
 -0.74000001   8156332.5
 -0.550000012   8157965.5
 -0.360000014   8159607.5
 -0.170000002   8161245.
 1.999999955E-2   8162871.
 0.209999993   8164487.5
 0.400000006   8166106.5
 0.589999974   8167739.5
 0.779999971   8169389.
 0.970000029   8171041.5
 1.15999997   8172687.5
 1.35000002   8174322.5
 1.53999996   8175956.
 1.73000002   8177598.
 1.91999996   8179248.
 2.1099999   8180899.
 2.29999995   8182538.5
 2.49000001   8184163.
 2.68000007   8185784.5
 2.86999989   8187415.5
 3.05999994   8189059.5
 3.25   8190710.5
 3.44000006   8192355.5
 3.63000011   8193988.5
 3.81999993   8195616.
 4.01000023   8197250.5
 4.19999981   8198900.
 4.38999987   8200554.5
 4.57999992   8202201.
 4.76999998   8203829.
 4.96000004   8205447.5
 5.1500001   8207071.5
 5.34000015   8208706.
 5.53000021   8210348.
 5.71999979   8211983.
 5.90999985   8213604.
 6.0999999   8215215.5
 6.28999996   8216834.
 6.48000002   8218464.5
 6.67000008   8220105.5
 6.86000013   8221740.
 7.05000019   8223361.
 7.23999977   8224971.5
 7.42999983   8226585.5
 7.61999989   8228216.
 7.80999994   8229859.
 8.   8231498.5
 8.18999958   8233129.5
 8.38000011   8234747.
 8.56999969   8236364.
 8.76000023   8237993.
 8.94999981   8239633.5
 9.14000034   8241277.
 9.32999992   8242912.
 9.52000046   8244536.5
 9.71000004   8246162.
 9.89999962   8247801.
 10.0900002   8249454.5
 10.2799997   8251112.5
 10.4700003   8252759.
 10.6599998   8254392.
 10.8500004   8256018.5
 11.04   8257655.5
 11.2299995   8259308.5
 11.4200001   8260967.5
 11.6099997   8262618.5
 11.8000002   8264255.
 11.9899998   8265879.
 12.1800003   8267505.
 12.3699999   8269146.
 12.5600004   8270797.5
 12.75   8272447.
 12.9399996   8274083.5
 13.1300001   8275709.
 13.3199997   8277332.5
 13.5100002   8278968.5
 13.6999998   8280613.
 13.8900003   8282253.5
 14.0799999   8283879.5
 14.2700005   8285492.
 14.46   8287099.5
 14.6499996   8288726.5
 14.8400002   8290374.5
 15.0299997   8292034.
 15.2200003   8293685.
 15.4099998   8295317.
 15.6000004   8296936.5
 15.79   8298556.5
 15.9799995   8300194.5
 16.1700001   8301839.5
 16.3600006   8303475.5
 16.5499992   8305097.
 16.7399998   8306708.
 16.9300003   8308328.
 17.1200008   8309967.5
 17.3099995   8311625.
 17.5   8313275.
 17.6900005   8314903.5
 17.8799992   8316516.
 18.0699997   8318127.5
 18.2600002   8319765.
 18.4500008   8321422.
 18.6399994   8323078.5
 18.8299999   8324716.
 19.0200005   8326333.
 19.2099991   8327945.5
 19.3999996   8329579.
 19.5900002   8331226.5
 19.7800007   8332874.5
 19.9699993   8334502.
 20.1599998   8336109.
 20.3500004   8337713.
 20.5400009   8339339.
 20.7299995   8340991.
 20.9200001   8342646.5
 21.1100006   8344286.5
 21.2999992   8345899.
 21.4899998   8347510.5
 21.6800003   8349140.
 21.8700008   8350793.
 22.0599995   8352451.
 22.25   8354093.
 22.4400005   8355708.
 22.6299992   8357314.5
 22.8199997   8358937.5
 23.0100002   8360586.5
 23.2000008   8362243.5
 23.3899994   8363888.5
 23.5799999   8365511.
 23.7700005   8367123.
 23.9599991   8368751.5
 24.1499996   8370403.5
 24.3400002   8372068.
 24.5300007   8373718.5
 24.7199993   8375344.
 24.9099998   8376955.5
 25.1000004   8378577.
 25.2900009   8380223.
 25.4799995   8381882.5
 25.6700001   8383535.5
 25.8600006   8385162.5
 26.0499992   8386774.
 26.2399998   8388387.
 26.4300003   8390025.
 26.6200008   8391681.
 26.8099995   8393330.
