 -30.   -7695612.5
 -29.8099995   -7697171.
 -29.6200008   -7698717.
 -29.4300003   -7700259.
 -29.2399998   -7701798.5
 -29.0499992   -7703345.5
 -28.8600006   -7704901.
 -28.6700001   -7706464.5
 -28.4799995   -7708034.5
 -28.2900009   -7709602.
 -28.1000004   -7711165.
 -27.9099998   -7712716.
 -27.7199993   -7714255.5
 -27.5300007   -7715783.5
 -27.3400002   -7717307.
 -27.1499996   -7718826.
 -26.9599991   -7720354.
 -26.7700005   -7721891.5
 -26.5799999   -7723442.
 -26.3899994   -7725005.
 -26.2000008   -7726572.
 -26.0100002   -7728132.5
 -25.8199997   -7729682.
 -25.6299992   -7731221.5
 -25.4400005   -7732746.
 -25.25   -7734265.5
 -25.0599995   -7735785.5
 -24.8700008   -7737312.5
 -24.6800003   -7738852.
 -24.4899998   -7740400.
 -24.2999992   -7741956.
 -24.1100006   -7743515.5
 -23.9200001   -7745070.
 -23.7299995   -7746618.
 -23.5400009   -7748153.5
 -23.3500004   -7749680.
 -23.1599998   -7751197.5
 -22.9699993   -7752709.5
 -22.7800007   -7754220.
 -22.5900002   -7755735.5
 -22.3999996   -7757257.5
 -22.2099991   -7758794.5
 -22.0200005   -7760345.5
 -21.8299999   -7761908.5
 -21.6399994   -7763477.
 -21.4500008   -7765040.
 -21.2600002   -7766591.5
 -21.0699997   -7768124.
 -20.8799992   -7769641.5
 -20.6900005   -7771149.
 -20.5   -7772655.
 -20.3099995   -7774169.5
 -20.1200008   -7775700.5
 -19.9300003   -7777250.
 -19.7399998   -7778814.
 -19.5499992   -7780386.
 -19.3600006   -7781953.5
 -19.1700001   -7783508.
 -18.9799995   -7785046.
 -18.7900009   -7786564.5
 -18.6000004   -7788069.5
 -18.4099998   -7789568.
 -18.2199993   -7791071.
 -18.0300007   -7792587.
 -17.8400002   -7794121.
 -17.6499996   -7795674.5
 -17.4599991   -7797242.
 -17.2700005   -7798811.5
 -17.0799999   -7800376.
 -16.8899994   -7801924.
 -16.7000008   -7803447.5
 -16.5100002   -7804952.
 -16.3199997   -7806444.5
 -16.1299992   -7807941.5
 -15.9399996   -7809452.
 -15.75   -7810988.5
 -15.5600004   -7812551.5
 -15.3699999   -7814135.
 -15.1800003   -7815726.
 -14.9899998   -7817309.5
 -14.8000002   -7818870.5
 -14.6099997   -7820407.
 -14.4200001   -7821918.
 -14.2299995   -7823416.5
 -14.04   -7824916.
 -13.8500004   -7826426.5
 -13.6599998   -7827954.5
 -13.4700003   -7829504.
 -13.2799997   -7831068.5
 -13.0900002   -7832639.
 -12.8999996   -7834206.
 -12.71   -7835757.5
 -12.5200005   -7837290.
 -12.3299999   -7838806.
 -12.1400003   -7840308.5
 -11.9499998   -7841804.5
 -11.7600002   -7843305.
 -11.5699997   -7844816.
 -11.3800001   -7846343.
 -11.1899996   -7847888.
 -11.   -7849447.
 -10.8100004   -7851012.5
 -10.6199999   -7852571.5
 -10.4300003   -7854115.5
 -10.2399998   -7855639.
 -10.0500002   -7857143.
 -9.85999966   -7858632.5
 -9.67000008   -7860117.
 -9.47999954   -7861607.
 -9.28999996   -7863110.
 -9.10000038   -7864630.5
 -8.90999985   -7866162.5
 -8.72000027   -7867703.
 -8.52999973   -7869238.5
 -8.34000015   -7870761.5
 -8.14999962   -7872266.5
 -7.96000004   -7873757.5
 -7.76999998   -7875240.5
 -7.57999992   -7876723.
 -7.38999987   -7878212.5
 -7.19999981   -7879716.5
 -7.01000023   -7881234.
 -6.82000017   -7882761.
 -6.63000011   -7884297.
 -6.44000006   -7885833.
 -6.25   -7887367.5
 -6.05999994   -7888894.5
 -5.86999989   -7890406.
 -5.67999983   -7891906.
 -5.48999977   -7893396.
 -5.30000019   -7894881.5
 -5.11000013   -7896365.5
 -4.92000008   -7897856.
 -4.73000002   -7899357.5
 -4.53999996   -7900871.
 -4.3499999   -7902393.
 -4.15999985   -7903917.
 -3.97000003   -7905435.5
 -3.77999997   -7906944.5
 -3.58999991   -7908440.5
 -3.4000001   -7909925.5
 -3.21000004   -7911403.5
 -3.01999998   -7912883.
 -2.82999992   -7914368.5
 -2.6400001   -7915864.
 -2.45000005   -7917368.5
 -2.25999999   -7918883.
 -2.06999993   -7920403.5
 -1.88   -7921924.
 -1.69000006   -7923439.5
 -1.5   -7924946.
 -1.30999994   -7926442.5
 -1.12   -7927930.
 -0.930000007   -7929410.
 -0.74000001   -7930890.
 -0.550000012   -7932379.
 -0.360000014   -7933877.5
 -0.170000002   -7935392.5
 1.999999955E-2   -7936920.5
 0.209999993   -7938454.5
 0.400000006   -7939985.
 0.589999974   -7941500.
 0.779999971   -7942993.5
 0.970000029   -7944466.
 1.15999997   -7945923.5
 1.35000002   -7947375.5
 1.53999996   -7948836.
 1.73000002   -7950316.5
 1.91999996   -7951818.
 2.1099999   -7953339.
 2.29999995   -7954868.5
 2.49000001   -7956394.5
 2.68000007   -7957909.5
 2.86999989   -7959410.5
 3.05999994   -7960896.
 3.25   -7962373.
 3.44000006   -7963850.5
 3.63000011   -7965334.5
 3.81999993   -7966829.5
 4.01000023   -7968339.
 4.19999981   -7969858.
 4.38999987   -7971381.5
 4.57999992   -7972902.
 4.76999998   -7974410.
 4.96000004   -7975904.
 5.1500001   -7977379.5
 5.34000015   -7978838.5
 5.53000021   -7980286.
 5.71999979   -7981730.5
 5.90999985   -7983187.5
 6.0999999   -7984659.5
 6.28999996   -7986149.5
 6.48000002   -7987655.5
 6.67000008   -7989168.5
 6.86000013   -7990676.
 7.05000019   -7992172.
 7.23999977   -7993648.
 7.42999983   -7995108.5
 7.61999989   -7996556.5
 7.80999994   -7998008.
 8.   -7999472.5
 8.18999958   -8000951.5
 8.38000011   -8002451.5
 8.56999969   -8003965.5
 8.76000023   -8005485.
 8.94999981   -8006998.5
 9.14000034   -8008499.5
 9.32999992   -8009979.
 9.52000046   -8011441.5
 9.71000004   -8012889.5
 9.89999962   -8014331.5
 10.0900002   -8015774.
 10.2799997   -8017226.5
 10.4700003   -8018691.5
 10.6599998   -8020173.5
 10.8500004   -8021665.
 11.04   -8023162.
 11.2299995   -8024652.
 11.4200001   -8026128.
 11.6099997   -8027588.5
 11.8000002   -8029034.5
 11.9899998   -8030474.5
 12.1800003   -8031916.
 12.3699999   -8033369.5
 12.5600004   -8034840.
 12.75   -8036330.5
 12.9399996   -8037834.5
 13.1300001   -8039341.5
 13.3199997   -8040844.5
 13.5100002   -8042335.
 13.6999998   -8043811.
 13.8900003   -8045274.5
 14.0799999   -8046726.5
 14.2700005   -8048178.5
 14.46   -8049634.5
 14.6499996   -8051099.
 14.8400002   -8052574.5
 15.0299997   -8054061.5
 15.2200003   -8055553.
 15.4099998   -8057048.
 15.6000004   -8058537.
 15.79   -8060016.5
 15.9799995   -8061481.5
 16.1700001   -8062935.5
 16.3600006   -8064377.5
 16.5499992   -8065816.
 16.7399998   -8067260.5
 16.9300003   -8068714.5
 17.1200008   -8070182.5
 17.3099995   -8071665.5
 17.5   -8073155.
 17.6900005   -8074641.5
 17.8799992   -8076117.
 18.0699997   -8077573.5
 18.2600002   -8079013.
 18.4500008   -8080436.
 18.6399994   -8081855.
 18.8299999   -8083276.
 19.0200005   -8084711.
 19.2099991   -8086165.5
 19.3999996   -8087637.5
 19.5900002   -8089119.5
 19.7800007   -8090602.5
 19.9699993   -8092076.
 20.1599998   -8093533.5
 20.3500004   -8094975.5
 20.5400009   -8096404.
 20.7299995   -8097827.5
 20.9200001   -8099254.
 21.1100006   -8100687.5
 21.2999992   -8102135.5
 21.4899998   -8103596.5
 21.6800003   -8105067.5
 21.8700008   -8106542.
 22.0599995   -8108013.
 22.25   -8109475.5
 22.4400005   -8110929.5
 22.6299992   -8112373.
 22.8199997   -8113811.
 23.0100002   -8115244.5
 23.2000008   -8116682.5
 23.3899994   -8118125.5
 23.5799999   -8119574.5
 23.7700005   -8121032.
 23.9599991   -8122498.
 24.1499996   -8123965.
 24.3400002   -8125431.
 24.5300007   -8126892.
 24.7199993   -8128342.5
 24.9099998   -8129784.
 25.1000004   -8131218.
 25.2900009   -8132648.
 25.4799995   -8134079.
 25.6700001   -8135514.5
 25.8600006   -8136956.
 26.0499992   -8138406.5
 26.2399998   -8139866.5
 26.4300003   -8141327.
 26.6200008   -8142786.
 26.8099995   -8144238.
