 -30.   825324.375
 -29.8099995   825478.813
 -29.6200008   825625.625
 -29.4300003   825769.125
 -29.2399998   825915.438
 -29.0499992   826066.375
 -28.8600006   826220.938
 -28.6700001   826374.063
 -28.4799995   826522.25
 -28.2900009   826667.25
 -28.1000004   826814.313
 -27.9099998   826961.063
 -27.7199993   827113.75
 -27.5300007   827272.063
 -27.3400002   827430.813
 -27.1499996   827591.438
 -26.9599991   827748.625
 -26.7700005   827905.875
 -26.5799999   828067.813
 -26.3899994   828237.5
 -26.2000008   828419.063
 -26.0100002   828610.5
 -25.8199997   828809.063
 -25.6299992   829005.75
 -25.4400005   829196.688
 -25.25   829377.813
 -25.0599995   829554.125
 -24.8700008   829726.625
 -24.6800003   829899.813
 -24.4899998   830074.563
 -24.2999992   830251.625
 -24.1100006   830424.688
 -23.9200001   830596.688
 -23.7299995   830763.438
 -23.5400009   830925.938
 -23.3500004   831088.75
 -23.1599998   831255.25
 -22.9699993   831424.625
 -22.7800007   831594.75
 -22.5900002   831763.375
 -22.3999996   831928.813
 -22.2099991   832087.5
 -22.0200005   832241.75
 -21.8299999   832395.375
 -21.6399994   832552.688
 -21.4500008   832714.625
 -21.2600002   832881.438
 -21.0699997   833052.313
 -20.8799992   833225.438
 -20.6900005   833401.5
 -20.5   833577.75
 -20.3099995   833757.125
 -20.1200008   833941.563
 -19.9300003   834128.
 -19.7399998   834316.063
 -19.5499992   834500.563
 -19.3600006   834678.188
 -19.1700001   834850.188
 -18.9799995   835016.625
 -18.7900009   835178.75
 -18.6000004   835338.438
 -18.4099998   835494.875
 -18.2199993   835652.188
 -18.0300007   835806.375
 -17.8400002   835955.125
 -17.6499996   836101.5
 -17.4599991   836246.5
 -17.2700005   836390.438
 -17.0799999   836539.875
 -16.8899994   836692.313
 -16.7000008   836850.75
 -16.5100002   837011.313
 -16.3199997   837174.375
 -16.1299992   837338.25
 -15.9399996   837500.188
 -15.75   837660.75
 -15.5600004   837820.688
 -15.3699999   837980.375
 -15.1800003   838139.813
 -14.9899998   838301.875
 -14.8000002   838466.188
 -14.6099997   838636.125
 -14.4200001   838810.688
 -14.2299995   838994.875
 -14.04   839186.25
 -13.8500004   839383.938
 -13.6599998   839584.063
 -13.4700003   839789.688
 -13.2799997   839995.938
 -13.0900002   840196.75
 -12.8999996   840396.313
 -12.71   840589.125
 -12.5200005   840778.25
 -12.3299999   840966.375
 -12.1400003   841153.438
 -11.9499998   841338.25
 -11.7600002   841524.5
 -11.5699997   841711.063
 -11.3800001   841898.938
 -11.1899996   842090.125
 -11.   842282.
 -10.8100004   842480.438
 -10.6199999   842683.75
 -10.4300003   842893.188
 -10.2399998   843109.438
 -10.0500002   843331.813
 -9.85999966   843559.25
 -9.67000008   843788.75
 -9.47999954   844015.25
 -9.28999996   844236.813
 -9.10000038   844451.063
 -8.90999985   844661.438
 -8.72000027   844863.875
 -8.52999973   845060.688
 -8.34000015   845247.188
 -8.14999962   845425.5
 -7.96000004   845590.
 -7.76999998   845746.313
 -7.57999992   845896.125
 -7.38999987   846043.813
 -7.19999981   846197.25
 -7.01000023   846355.75
 -6.82000017   846517.438
 -6.63000011   846678.
 -6.44000006   846833.688
 -6.25   846981.75
 -6.05999994   847126.
 -5.86999989   847266.5
 -5.67999983   847406.438
 -5.48999977   847547.313
 -5.30000019   847687.125
 -5.11000013   847828.063
 -4.92000008   847962.813
 -4.73000002   848089.75
 -4.53999996   848210.5
 -4.3499999   848326.813
 -4.15999985   848441.
 -3.97000003   848554.5
 -3.77999997   848668.875
 -3.58999991   848783.813
 -3.4000001   848898.125
 -3.21000004   849012.563
 -3.01999998   849132.25
 -2.82999992   849257.875
 -2.6400001   849391.125
 -2.45000005   849532.188
 -2.25999999   849675.313
 -2.06999993   849820.375
 -1.88   849966.563
 -1.69000006   850112.625
 -1.5   850263.625
 -1.30999994   850421.563
 -1.12   850586.75
 -0.930000007   850757.938
 -0.74000001   850931.25
 -0.550000012   851107.5
 -0.360000014   851286.125
 -0.170000002   851470.5
 1.999999955E-2   851667.125
 0.209999993   851876.063
 0.400000006   852095.5
 0.589999974   852318.938
 0.779999971   852540.313
 0.970000029   852757.438
 1.15999997   852970.875
 1.35000002   853181.438
 1.53999996   853393.625
 1.73000002   853610.625
 1.91999996   853829.25
 2.1099999   854047.813
 2.29999995   854262.375
 2.49000001   854468.938
 2.68000007   854672.75
 2.86999989   854877.75
 3.05999994   855087.438
 3.25   855301.063
 3.44000006   855519.375
 3.63000011   855734.25
 3.81999993   855939.
 4.01000023   856130.813
 4.19999981   856312.
 4.38999987   856483.75
 4.57999992   856653.688
 4.76999998   856822.375
 4.96000004   856990.125
 5.1500001   857154.688
 5.34000015   857309.
 5.53000021   857458.
 5.71999979   857602.375
 5.90999985   857745.25
 6.0999999   857894.375
 6.28999996   858051.875
 6.48000002   858211.688
 6.67000008   858374.375
 6.86000013   858532.563
 7.05000019   858687.75
 7.23999977   858844.813
 7.42999983   859005.5
 7.61999989   859176.438
 7.80999994   859351.
 8.   859525.938
 8.18999958   859692.938
 8.38000011   859849.688
 8.56999969   859997.25
 8.76000023   860141.625
 8.94999981   860284.938
 9.14000034   860438.5
 9.32999992   860599.5
 9.52000046   860763.625
 9.71000004   860928.813
 9.89999962   861090.188
 10.0900002   861249.625
 10.2799997   861408.438
 10.4700003   861572.313
 10.6599998   861745.813
 10.8500004   861926.313
 11.04   862116.188
 11.2299995   862305.
 11.4200001   862489.813
 11.6099997   862666.125
 11.8000002   862839.875
 11.9899998   863011.813
 12.1800003   863189.5
 12.3699999   863369.5
 12.5600004   863553.688
 12.75   863738.688
 12.9399996   863920.5
 13.1300001   864098.125
 13.3199997   864275.5
 13.5100002   864453.125
 13.6999998   864634.438
 13.8900003   864818.5
 14.0799999   865005.5
 14.2700005   865190.25
 14.46   865368.25
 14.6499996   865543.625
 14.8400002   865718.875
 15.0299997   865896.375
 15.2200003   866079.375
 15.4099998   866264.375
 15.6000004   866451.
 15.79   866632.125
 15.9799995   866811.125
 16.1700001   866982.813
 16.3600006   867151.813
 16.5499992   867324.813
 16.7399998   867503.
 16.9300003   867691.625
 17.1200008   867885.313
 17.3099995   868081.25
 17.5   868273.313
 17.6900005   868458.625
 17.8799992   868637.875
 18.0699997   868813.938
 18.2600002   868988.75
 18.4500008   869165.875
 18.6399994   869346.438
 18.8299999   869527.
 19.0200005   869703.625
 19.2099991   869876.688
 19.3999996   870040.813
 19.5900002   870200.
 19.7800007   870358.813
 19.9699993   870517.75
 20.1599998   870678.375
 20.3500004   870843.313
 20.5400009   871010.938
 20.7299995   871180.125
 20.9200001   871350.625
 21.1100006   871521.438
 21.2999992   871694.563
 21.4899998   871870.313
 21.6800003   872045.
 21.8700008   872221.188
 22.0599995   872396.313
 22.25   872572.
 22.4400005   872745.625
 22.6299992   872918.125
 22.8199997   873091.938
 23.0100002   873268.5
 23.2000008   873446.063
 23.3899994   873622.5
 23.5799999   873795.
 23.7700005   873962.
 23.9599991   874124.625
 24.1499996   874286.5
 24.3400002   874452.563
 24.5300007   874627.688
 24.7199993   874809.875
 24.9099998   875001.063
 25.1000004   875192.938
 25.2900009   875380.063
 25.4799995   875561.313
 25.6700001   875736.813
 25.8600006   875912.375
 26.0499992   876090.75
 26.2399998   876275.
 26.4300003   876464.875
 26.6200008   876656.438
 26.8099995   876846.063
