 -30.   8484536.
 -29.8099995   8486270.
 -29.6200008   8488002.
 -29.4300003   8489736.
 -29.2399998   8491469.
 -29.0499992   8493202.
 -28.8600006   8494934.
 -28.6700001   8496666.
 -28.4799995   8498400.
 -28.2900009   8500131.
 -28.1000004   8501861.
 -27.9099998   8503591.
 -27.7199993   8505318.
 -27.5300007   8507041.
 -27.3400002   8508766.
 -27.1499996   8510492.
 -26.9599991   8512222.
 -26.7700005   8513956.
 -26.5799999   8515693.
 -26.3899994   8517432.
 -26.2000008   8519166.
 -26.0100002   8520893.
 -25.8199997   8522611.
 -25.6299992   8524321.
 -25.4400005   8526027.
 -25.25   8527738.
 -25.0599995   8529456.
 -24.8700008   8531186.
 -24.6800003   8532923.
 -24.4899998   8534664.
 -24.2999992   8536398.
 -24.1100006   8538125.
 -23.9200001   8539841.
 -23.7299995   8541549.
 -23.5400009   8543256.
 -23.3500004   8544964.
 -23.1599998   8546682.
 -22.9699993   8548410.
 -22.7800007   8550152.
 -22.5900002   8551906.
 -22.3999996   8553666.
 -22.2099991   8555432.
 -22.0200005   8557195.
 -21.8299999   8558951.
 -21.6399994   8560695.
 -21.4500008   8562423.
 -21.2600002   8564140.
 -21.0699997   8565850.
 -20.8799992   8567561.
 -20.6900005   8569278.
 -20.5   8571006.
 -20.3099995   8572745.
 -20.1200008   8574487.
 -19.9300003   8576227.
 -19.7399998   8577956.
 -19.5499992   8579671.
 -19.3600006   8581371.
 -19.1700001   8583060.
 -18.9799995   8584743.
 -18.7900009   8586424.
 -18.6000004   8588112.
 -18.4099998   8589807.
 -18.2199993   8591511.
 -18.0300007   8593222.
 -17.8400002   8594938.
 -17.6499996   8596661.
 -17.4599991   8598381.
 -17.2700005   8600101.
 -17.0799999   8601818.
 -16.8899994   8603532.
 -16.7000008   8605248.
 -16.5100002   8606965.
 -16.3199997   8608686.
 -16.1299992   8610409.
 -15.9399996   8612134.
 -15.75   8613861.
 -15.5600004   8615589.
 -15.3699999   8617316.
 -15.1800003   8619044.
 -14.9899998   8620771.
 -14.8000002   8622493.
 -14.6099997   8624208.
 -14.4200001   8625912.
 -14.2299995   8627607.
 -14.04   8629298.
 -13.8500004   8630986.
 -13.6599998   8632679.
 -13.4700003   8634377.
 -13.2799997   8636076.
 -13.0900002   8637772.
 -12.8999996   8639458.
 -12.71   8641132.
 -12.5200005   8642795.
 -12.3299999   8644453.
 -12.1400003   8646112.
 -11.9499998   8647778.
 -11.7600002   8649452.
 -11.5699997   8651133.
 -11.3800001   8652822.
 -11.1899996   8654511.
 -11.   8656204.
 -10.8100004   8657897.
 -10.6199999   8659590.
 -10.4300003   8661285.
 -10.2399998   8662981.
 -10.0500002   8664679.
 -9.85999966   8666376.
 -9.67000008   8668075.
 -9.47999954   8669776.
 -9.28999996   8671480.
 -9.10000038   8673187.
 -8.90999985   8674894.
 -8.72000027   8676601.
 -8.52999973   8678304.
 -8.34000015   8680001.
 -8.14999962   8681693.
 -7.96000004   8683383.
 -7.76999998   8685078.
 -7.57999992   8686777.
 -7.38999987   8688487.
 -7.19999981   8690205.
 -7.01000023   8691926.
 -6.82000017   8693642.
 -6.63000011   8695351.
 -6.44000006   8697052.
 -6.25   8698744.
 -6.05999994   8700436.
 -5.86999989   8702126.
 -5.67999983   8703818.
 -5.48999977   8705511.
 -5.30000019   8707203.
 -5.11000013   8708889.
 -4.92000008   8710573.
 -4.73000002   8712252.
 -4.53999996   8713927.
 -4.3499999   8715600.
 -4.15999985   8717264.
 -3.97000003   8718919.
 -3.77999997   8720564.
 -3.58999991   8722202.
 -3.4000001   8723839.
 -3.21000004   8725481.
 -3.01999998   8727138.
 -2.82999992   8728804.
 -2.6400001   8730479.
 -2.45000005   8732149.
 -2.25999999   8733807.
 -2.06999993   8735446.
 -1.88   8737069.
 -1.69000006   8738685.
 -1.5   8740306.
 -1.30999994   8741939.
 -1.12   8743587.
 -0.930000007   8745247.
 -0.74000001   8746908.
 -0.550000012   8748564.
 -0.360000014   8750214.
 -0.170000002   8751856.
 1.999999955E-2   8753494.
 0.209999993   8755135.
 0.400000006   8756776.
 0.589999974   8758420.
 0.779999971   8760067.
 0.970000029   8761714.
 1.15999997   8763368.
 1.35000002   8765024.
 1.53999996   8766679.
 1.73000002   8768334.
 1.91999996   8769982.
 2.1099999   8771625.
 2.29999995   8773265.
 2.49000001   8774905.
 2.68000007   8776550.
 2.86999989   8778203.
 3.05999994   8779861.
 3.25   8781521.
 3.44000006   8783180.
 3.63000011   8784832.
 3.81999993   8786479.
 4.01000023   8788126.
 4.19999981   8789774.
 4.38999987   8791427.
 4.57999992   8793083.
 4.76999998   8794743.
 4.96000004   8796399.
 5.1500001   8798054.
 5.34000015   8799705.
 5.53000021   8801356.
 5.71999979   8803007.
 5.90999985   8804653.
 6.0999999   8806294.
 6.28999996   8807922.
 6.48000002   8809538.
 6.67000008   8811148.
 6.86000013   8812756.
 7.05000019   8814374.
 7.23999977   8816007.
 7.42999983   8817650.
 7.61999989   8819299.
 7.80999994   8820944.
 8.   8822575.
 8.18999958   8824193.
 8.38000011   8825802.
 8.56999969   8827414.
 8.76000023   8829034.
 8.94999981   8830672.
 9.14000034   8832325.
 9.32999992   8833988.
 9.52000046   8835656.
 9.71000004   8837320.
 9.89999962   8838980.
 10.0900002   8840632.
 10.2799997   8842279.
 10.4700003   8843923.
 10.6599998   8845561.
 10.8500004   8847199.
 11.04   8848837.
 11.2299995   8850473.
 11.4200001   8852111.
 11.6099997   8853755.
 11.8000002   8855396.
 11.9899998   8857037.
 12.1800003   8858672.
 12.3699999   8860295.
 12.5600004   8861910.
 12.75   8863515.
 12.9399996   8865117.
 13.1300001   8866718.
 13.3199997   8868322.
 13.5100002   8869929.
 13.6999998   8871536.
 13.8900003   8873142.
 14.0799999   8874748.
 14.2700005   8876351.
 14.46   8877956.
 14.6499996   8879565.
 14.8400002   8881175.
 15.0299997   8882784.
 15.2200003   8884389.
 15.4099998   8885989.
 15.6000004   8887584.
 15.79   8889175.
 15.9799995   8890770.
 16.1700001   8892376.
 16.3600006   8893995.
 16.5499992   8895627.
 16.7399998   8897264.
 16.9300003   8898898.
 17.1200008   8900525.
 17.3099995   8902142.
 17.5   8903752.
 17.6900005   8905357.
 17.8799992   8906966.
 18.0699997   8908577.
 18.2600002   8910193.
 18.4500008   8911812.
 18.6399994   8913430.
 18.8299999   8915043.
 19.0200005   8916650.
 19.2099991   8918255.
 19.3999996   8919859.
 19.5900002   8921466.
 19.7800007   8923077.
 19.9699993   8924689.
 20.1599998   8926296.
 20.3500004   8927898.
 20.5400009   8929493.
 20.7299995   8931084.
 20.9200001   8932677.
 21.1100006   8934279.
 21.2999992   8935890.
 21.4899998   8937504.
 21.6800003   8939121.
 21.8700008   8940731.
 22.0599995   8942335.
 22.25   8943927.
 22.4400005   8945512.
 22.6299992   8947097.
 22.8199997   8948682.
 23.0100002   8950272.
 23.2000008   8951862.
 23.3899994   8953454.
 23.5799999   8955045.
 23.7700005   8956632.
 23.9599991   8958217.
 24.1499996   8959803.
 24.3400002   8961388.
 24.5300007   8962974.
 24.7199993   8964561.
 24.9099998   8966147.
 25.1000004   8967732.
 25.2900009   8969318.
 25.4799995   8970906.
 25.6700001   8972495.
 25.8600006   8974083.
 26.0499992   8975670.
 26.2399998   8977256.
 26.4300003   8978843.
 26.6200008   8980430.
 26.8099995   8982016.
