 -30.   7010719.
 -29.8099995   7012153.5
 -29.6200008   7013590.5
 -29.4300003   7015028.
 -29.2399998   7016463.5
 -29.0499992   7017899.
 -28.8600006   7019332.
 -28.6700001   7020762.
 -28.4799995   7022194.
 -28.2900009   7023624.5
 -28.1000004   7025057.
 -27.9099998   7026488.5
 -27.7199993   7027921.
 -27.5300007   7029352.
 -27.3400002   7030782.
 -27.1499996   7032210.5
 -26.9599991   7033641.
 -26.7700005   7035073.
 -26.5799999   7036507.
 -26.3899994   7037945.5
 -26.2000008   7039386.5
 -26.0100002   7040828.5
 -25.8199997   7042268.5
 -25.6299992   7043701.
 -25.4400005   7045129.5
 -25.25   7046552.
 -25.0599995   7047971.5
 -24.8700008   7049391.5
 -24.6800003   7050817.
 -24.4899998   7052249.5
 -24.2999992   7053685.
 -24.1100006   7055123.5
 -23.9200001   7056556.
 -23.7299995   7057983.5
 -23.5400009   7059398.
 -23.3500004   7060800.5
 -23.1599998   7062199.
 -22.9699993   7063595.
 -22.7800007   7064995.5
 -22.5900002   7066405.
 -22.3999996   7067827.5
 -22.2099991   7069263.
 -22.0200005   7070703.5
 -21.8299999   7072145.
 -21.6399994   7073579.5
 -21.4500008   7075007.
 -21.2600002   7076423.
 -21.0699997   7077836.5
 -20.8799992   7079252.5
 -20.6900005   7080675.5
 -20.5   7082111.5
 -20.3099995   7083554.
 -20.1200008   7084991.5
 -19.9300003   7086418.
 -19.7399998   7087824.5
 -19.5499992   7089210.
 -19.3600006   7090582.
 -19.1700001   7091948.5
 -18.9799995   7093321.
 -18.7900009   7094707.5
 -18.6000004   7096109.5
 -18.4099998   7097523.
 -18.2199993   7098942.5
 -18.0300007   7100360.
 -17.8400002   7101774.
 -17.6499996   7103185.
 -17.4599991   7104594.
 -17.2700005   7106006.
 -17.0799999   7107424.5
 -16.8899994   7108854.5
 -16.7000008   7110294.
 -16.5100002   7111739.
 -16.3199997   7113187.5
 -16.1299992   7114634.5
 -15.9399996   7116076.
 -15.75   7117509.5
 -15.5600004   7118933.
 -15.3699999   7120348.5
 -15.1800003   7121753.5
 -14.9899998   7123152.5
 -14.8000002   7124547.
 -14.6099997   7125937.
 -14.4200001   7127326.5
 -14.2299995   7128718.
 -14.04   7130109.5
 -13.8500004   7131507.5
 -13.6599998   7132909.5
 -13.4700003   7134318.
 -13.2799997   7135729.
 -13.0900002   7137142.5
 -12.8999996   7138552.5
 -12.71   7139957.5
 -12.5200005   7141362.
 -12.3299999   7142759.5
 -12.1400003   7144157.
 -11.9499998   7145554.5
 -11.7600002   7146953.5
 -11.5699997   7148357.
 -11.3800001   7149763.5
 -11.1899996   7151171.5
 -11.   7152579.5
 -10.8100004   7153984.5
 -10.6199999   7155384.5
 -10.4300003   7156785.
 -10.2399998   7158182.
 -10.0500002   7159582.
 -9.85999966   7160979.5
 -9.67000008   7162377.
 -9.47999954   7163769.5
 -9.28999996   7165153.5
 -9.10000038   7166532.
 -8.90999985   7167901.5
 -8.72000027   7169268.5
 -8.52999973   7170640.
 -8.34000015   7172014.5
 -8.14999962   7173398.5
 -7.96000004   7174786.
 -7.76999998   7176175.
 -7.57999992   7177564.
 -7.38999987   7178953.5
 -7.19999981   7180339.5
 -7.01000023   7181726.
 -6.82000017   7183116.
 -6.63000011   7184509.
 -6.44000006   7185907.
 -6.25   7187307.5
 -6.05999994   7188712.
 -5.86999989   7190116.
 -5.67999983   7191517.5
 -5.48999977   7192911.
 -5.30000019   7194296.5
 -5.11000013   7195669.
 -4.92000008   7197032.
 -4.73000002   7198390.5
 -4.53999996   7199748.5
 -4.3499999   7201112.5
 -4.15999985   7202483.5
 -3.97000003   7203859.
 -3.77999997   7205239.
 -3.58999991   7206616.
 -3.4000001   7207985.5
 -3.21000004   7209350.
 -3.01999998   7210712.5
 -2.82999992   7212077.5
 -2.6400001   7213448.
 -2.45000005   7214828.
 -2.25999999   7216210.5
 -2.06999993   7217596.
 -1.88   7218977.5
 -1.69000006   7220356.5
 -1.5   7221731.
 -1.30999994   7223101.5
 -1.12   7224470.5
 -0.930000007   7225841.5
 -0.74000001   7227214.
 -0.550000012   7228584.5
 -0.360000014   7229957.
 -0.170000002   7231328.5
 1.999999955E-2   7232699.
 0.209999993   7234070.5
 0.400000006   7235440.
 0.589999974   7236806.
 0.779999971   7238171.
 0.970000029   7239533.5
 1.15999997   7240895.
 1.35000002   7242259.
 1.53999996   7243622.5
 1.73000002   7244989.
 1.91999996   7246351.5
 2.1099999   7247710.
 2.29999995   7249063.5
 2.49000001   7250409.
 2.68000007   7251751.
 2.86999989   7253093.
 3.05999994   7254439.
 3.25   7255794.5
 3.44000006   7257159.5
 3.63000011   7258530.5
 3.81999993   7259901.
 4.01000023   7261268.5
 4.19999981   7262628.
 4.38999987   7263982.
 4.57999992   7265332.5
 4.76999998   7266683.5
 4.96000004   7268037.
 5.1500001   7269396.5
 5.34000015   7270756.5
 5.53000021   7272117.5
 5.71999979   7273472.5
 5.90999985   7274819.5
 6.0999999   7276155.5
 6.28999996   7277483.
 6.48000002   7278805.5
 6.67000008   7280124.5
 6.86000013   7281445.5
 7.05000019   7282769.
 7.23999977   7284100.5
 7.42999983   7285435.
 7.61999989   7286774.5
 7.80999994   7288116.5
 8.   7289459.5
 8.18999958   7290804.
 8.38000011   7292143.5
 8.56999969   7293484.
 8.76000023   7294824.5
 8.94999981   7296162.5
 9.14000034   7297501.5
 9.32999992   7298841.5
 9.52000046   7300183.5
 9.71000004   7301529.
 9.89999962   7302876.
 10.0900002   7304224.5
 10.2799997   7305575.
 10.4700003   7306927.5
 10.6599998   7308280.
 10.8500004   7309633.
 11.04   7310987.
 11.2299995   7312339.
 11.4200001   7313690.
 11.6099997   7315037.5
 11.8000002   7316383.
 11.9899998   7317726.
 12.1800003   7319067.
 12.3699999   7320407.5
 12.5600004   7321748.
 12.75   7323088.5
 12.9399996   7324426.
 13.1300001   7325758.
 13.3199997   7327087.5
 13.5100002   7328408.
 13.6999998   7329728.
 13.8900003   7331048.
 14.0799999   7332371.
 14.2700005   7333698.
 14.46   7335028.5
 14.6499996   7336357.5
 14.8400002   7337686.
 15.0299997   7339011.
 15.2200003   7340333.5
 15.4099998   7341652.5
 15.6000004   7342975.5
 15.79   7344303.5
 15.9799995   7345637.
 16.1700001   7346971.5
 16.3600006   7348307.
 16.5499992   7349638.5
 16.7399998   7350965.5
 16.9300003   7352290.5
 17.1200008   7353616.
 17.3099995   7354946.
 17.5   7356277.5
 17.6900005   7357608.5
 17.8799992   7358937.5
 18.0699997   7360264.
 18.2600002   7361584.
 18.4500008   7362902.
 18.6399994   7364222.
 18.8299999   7365541.5
 19.0200005   7366864.5
 19.2099991   7368187.5
 19.3999996   7369508.
 19.5900002   7370824.5
 19.7800007   7372135.
 19.9699993   7373442.5
 20.1599998   7374747.
 20.3500004   7376052.5
 20.5400009   7377356.
 20.7299995   7378662.
 20.9200001   7379968.
 21.1100006   7381272.5
 21.2999992   7382577.5
 21.4899998   7383883.5
 21.6800003   7385193.
 21.8700008   7386504.
 22.0599995   7387823.
 22.25   7389146.
 22.4400005   7390475.
 22.6299992   7391804.5
 22.8199997   7393132.5
 23.0100002   7394457.
 23.2000008   7395772.
 23.3899994   7397076.5
 23.5799999   7398372.5
 23.7700005   7399662.5
 23.9599991   7400951.
 24.1499996   7402238.
 24.3400002   7403531.5
 24.5300007   7404831.5
 24.7199993   7406134.
 24.9099998   7407440.
 25.1000004   7408744.
 25.2900009   7410044.
 25.4799995   7411340.5
 25.6700001   7412633.
 25.8600006   7413927.5
 26.0499992   7415224.5
 26.2399998   7416526.
 26.4300003   7417832.
 26.6200008   7419141.
 26.8099995   7420450.5
