 -30.   2243172.
 -29.8099995   2243694.5
 -29.6200008   2244234.25
 -29.4300003   2244735.75
 -29.2399998   2245191.25
 -29.0499992   2245642.5
 -28.8600006   2246142.
 -28.6700001   2246690.
 -28.4799995   2247251.5
 -28.2900009   2247768.
 -28.1000004   2248225.25
 -27.9099998   2248666.5
 -27.7199993   2249144.25
 -27.5300007   2249678.25
 -27.3400002   2250233.25
 -27.1499996   2250753.75
 -26.9599991   2251220.
 -26.7700005   2251660.5
 -26.5799999   2252127.
 -26.3899994   2252648.
 -26.2000008   2253198.25
 -26.0100002   2253722.5
 -25.8199997   2254194.5
 -25.6299992   2254644.5
 -25.4400005   2255120.5
 -25.25   2255651.5
 -25.0599995   2256216.25
 -24.8700008   2256762.75
 -24.6800003   2257256.75
 -24.4899998   2257714.5
 -24.2999992   2258188.
 -24.1100006   2258710.25
 -23.9200001   2259267.75
 -23.7299995   2259813.75
 -23.5400009   2260309.5
 -23.3500004   2260764.
 -23.1599998   2261227.5
 -22.9699993   2261741.5
 -22.7800007   2262294.75
 -22.5900002   2262840.75
 -22.3999996   2263338.75
 -22.2099991   2263786.
 -22.0200005   2264233.75
 -21.8299999   2264723.
 -21.6399994   2265253.75
 -21.4500008   2265784.75
 -21.2600002   2266266.5
 -21.0699997   2266696.5
 -20.8799992   2267116.5
 -20.6900005   2267578.
 -20.5   2268088.5
 -20.3099995   2268613.5
 -20.1200008   2269099.75
 -19.9300003   2269534.25
 -19.7399998   2269957.
 -19.5499992   2270415.75
 -19.3600006   2270928.
 -19.1700001   2271457.75
 -18.9799995   2271953.
 -18.7900009   2272394.
 -18.6000004   2272817.5
 -18.4099998   2273268.5
 -18.2199993   2273775.5
 -18.0300007   2274307.5
 -17.8400002   2274814.
 -17.6499996   2275265.75
 -17.4599991   2275686.
 -17.2700005   2276126.25
 -17.0799999   2276618.5
 -16.8899994   2277137.5
 -16.7000008   2277630.25
 -16.5100002   2278066.75
 -16.3199997   2278470.5
 -16.1299992   2278891.
 -15.9399996   2279364.25
 -15.75   2279874.25
 -15.5600004   2280369.
 -15.3699999   2280811.75
 -15.1800003   2281215.75
 -14.9899998   2281631.25
 -14.8000002   2282096.75
 -14.6099997   2282596.25
 -14.4200001   2283085.
 -14.2299995   2283524.25
 -14.04   2283924.
 -13.8500004   2284328.75
 -13.6599998   2284787.
 -13.4700003   2285290.
 -13.2799997   2285792.
 -13.0900002   2286249.
 -12.8999996   2286659.75
 -12.71   2287068.5
 -12.5200005   2287521.
 -12.3299999   2288015.75
 -12.1400003   2288513.25
 -11.9499998   2288967.
 -11.7600002   2289371.
 -11.5699997   2289767.
 -11.3800001   2290200.25
 -11.1899996   2290681.5
 -11.   2291174.5
 -10.8100004   2291636.5
 -10.6199999   2292050.75
 -10.4300003   2292454.
 -10.2399998   2292890.5
 -10.0500002   2293375.25
 -9.85999966   2293875.
 -9.67000008   2294342.75
 -9.47999954   2294764.5
 -9.28999996   2295159.5
 -9.10000038   2295579.25
 -8.90999985   2296043.75
 -8.72000027   2296533.
 -8.52999973   2297005.5
 -8.34000015   2297437.
 -8.14999962   2297846.75
 -7.96000004   2298273.75
 -7.76999998   2298742.5
 -7.57999992   2299239.
 -7.38999987   2299725.25
 -7.19999981   2300174.
 -7.01000023   2300596.25
 -6.82000017   2301035.
 -6.63000011   2301512.75
 -6.44000006   2302021.75
 -6.25   2302527.
 -6.05999994   2302995.75
 -5.86999989   2303433.
 -5.67999983   2303874.
 -5.48999977   2304351.25
 -5.30000019   2304864.
 -5.11000013   2305380.
 -4.92000008   2305865.
 -4.73000002   2306323.
 -4.53999996   2306782.
 -4.3499999   2307273.75
 -4.15999985   2307805.25
 -3.97000003   2308343.25
 -3.77999997   2308855.
 -3.58999991   2309331.25
 -3.4000001   2309800.
 -3.21000004   2310292.25
 -3.01999998   2310821.75
 -2.82999992   2311361.75
 -2.6400001   2311880.5
 -2.45000005   2312366.25
 -2.25999999   2312835.25
 -2.06999993   2313321.
 -1.88   2313842.5
 -1.69000006   2314379.5
 -1.5   2314904.5
 -1.30999994   2315397.
 -1.12   2315873.5
 -0.930000007   2316362.5
 -0.74000001   2316888.
 -0.550000012   2317436.5
 -0.360000014   2317976.75
 -0.170000002   2318484.75
 1.999999955E-2   2318969.
 0.209999993   2319457.75
 0.400000006   2319976.5
 0.589999974   2320516.25
 0.779999971   2321052.75
 0.970000029   2321557.25
 1.15999997   2322036.
 1.35000002   2322516.25
 1.53999996   2323019.25
 1.73000002   2323546.25
 1.91999996   2324076.5
 2.1099999   2324583.5
 2.29999995   2325066.
 2.49000001   2325549.
 2.68000007   2326060.5
 2.86999989   2326602.5
 3.05999994   2327153.5
 3.25   2327682.
 3.44000006   2328183.25
 3.63000011   2328673.
 3.81999993   2329178.5
 4.01000023   2329711.
 4.19999981   2330251.75
 4.38999987   2330772.5
 4.57999992   2331261.25
 4.76999998   2331735.75
 4.96000004   2332225.5
 5.1500001   2332746.25
 5.34000015   2333278.75
 5.53000021   2333797.75
 5.71999979   2334288.25
 5.90999985   2334761.25
 6.0999999   2335245.75
 6.28999996   2335761.75
 6.48000002   2336295.75
 6.67000008   2336816.
 6.86000013   2337299.75
 7.05000019   2337757.5
 7.23999977   2338213.75
 7.42999983   2338693.5
 7.61999989   2339193.
 7.80999994   2339686.75
 8.   2340150.25
 8.18999958   2340589.25
 8.38000011   2341033.5
 8.56999969   2341505.5
 8.76000023   2342005.25
 8.94999981   2342506.25
 9.14000034   2342980.25
 9.32999992   2343428.5
 9.52000046   2343877.75
 9.71000004   2344353.75
 9.89999962   2344863.25
 10.0900002   2345383.75
 10.2799997   2345882.
 10.4700003   2346350.25
 10.6599998   2346809.
 10.8500004   2347290.5
 11.04   2347797.
 11.2299995   2348311.75
 11.4200001   2348797.
 11.6099997   2349246.25
 11.8000002   2349679.25
 11.9899998   2350127.25
 12.1800003   2350609.25
 12.3699999   2351110.5
 12.5600004   2351598.5
 12.75   2352062.
 12.9399996   2352516.5
 13.1300001   2352993.
 13.3199997   2353510.75
 13.5100002   2354056.
 13.6999998   2354594.25
 13.8900003   2355097.25
 14.0799999   2355575.5
 14.2700005   2356059.75
 14.46   2356574.75
 14.6499996   2357117.25
 14.8400002   2357654.25
 15.0299997   2358164.75
 15.2200003   2358648.25
 15.4099998   2359131.25
 15.6000004   2359637.5
 15.79   2360169.
 15.9799995   2360696.
 16.1700001   2361195.5
 16.3600006   2361662.5
 16.5499992   2362122.
 16.7399998   2362606.
 16.9300003   2363121.75
 17.1200008   2363645.5
 17.3099995   2364152.75
 17.5   2364633.75
 17.6900005   2365105.75
 17.8799992   2365602.
 18.0699997   2366125.25
 18.2600002   2366662.25
 18.4500008   2367183.5
 18.6399994   2367675.75
 18.8299999   2368148.75
 19.0200005   2368635.
 19.2099991   2369149.25
 19.3999996   2369676.75
 19.5900002   2370195.25
 19.7800007   2370685.75
 19.9699993   2371165.25
 20.1599998   2371655.5
 20.3500004   2372168.5
 20.5400009   2372694.5
 20.7299995   2373211.
 20.9200001   2373702.
 21.1100006   2374171.25
 21.2999992   2374645.25
 21.4899998   2375140.
 21.6800003   2375652.5
 21.8700008   2376166.25
 22.0599995   2376661.25
 22.25   2377140.5
 22.4400005   2377623.5
 22.6299992   2378128.
 22.8199997   2378652.
 23.0100002   2379172.25
 23.2000008   2379666.75
 23.3899994   2380132.75
 23.5799999   2380587.75
 23.7700005   2381057.75
 23.9599991   2381548.25
 24.1499996   2382038.25
 24.3400002   2382505.25
 24.5300007   2382947.5
 24.7199993   2383386.25
 24.9099998   2383841.75
 25.1000004   2384325.
 25.2900009   2384818.5
 25.4799995   2385289.75
 25.6700001   2385733.25
 25.8600006   2386165.75
 26.0499992   2386614.25
 26.2399998   2387093.
 26.4300003   2387588.75
 26.6200008   2388068.75
 26.8099995   2388521.25
