 -30.   -8890248.
 -29.8099995   -8892057.
 -29.6200008   -8893854.
 -29.4300003   -8895652.
 -29.2399998   -8897452.
 -29.0499992   -8899253.
 -28.8600006   -8901060.
 -28.6700001   -8902870.
 -28.4799995   -8904683.
 -28.2900009   -8906495.
 -28.1000004   -8908305.
 -27.9099998   -8910108.
 -27.7199993   -8911906.
 -27.5300007   -8913698.
 -27.3400002   -8915489.
 -27.1499996   -8917284.
 -26.9599991   -8919082.
 -26.7700005   -8920890.
 -26.5799999   -8922701.
 -26.3899994   -8924515.
 -26.2000008   -8926329.
 -26.0100002   -8928137.
 -25.8199997   -8929938.
 -25.6299992   -8931734.
 -25.4400005   -8933521.
 -25.25   -8935309.
 -25.0599995   -8937099.
 -24.8700008   -8938896.
 -24.6800003   -8940703.
 -24.4899998   -8942518.
 -24.2999992   -8944331.
 -24.1100006   -8946138.
 -23.9200001   -8947935.
 -23.7299995   -8949716.
 -23.5400009   -8951486.
 -23.3500004   -8953251.
 -23.1599998   -8955019.
 -22.9699993   -8956794.
 -22.7800007   -8958580.
 -22.5900002   -8960378.
 -22.3999996   -8962186.
 -22.2099991   -8963998.
 -22.0200005   -8965803.
 -21.8299999   -8967601.
 -21.6399994   -8969389.
 -21.4500008   -8971165.
 -21.2600002   -8972937.
 -21.0699997   -8974705.
 -20.8799992   -8976478.
 -20.6900005   -8978252.
 -20.5   -8980032.
 -20.3099995   -8981814.
 -20.1200008   -8983598.
 -19.9300003   -8985381.
 -19.7399998   -8987162.
 -19.5499992   -8988937.
 -19.3600006   -8990708.
 -19.1700001   -8992479.
 -18.9799995   -8994251.
 -18.7900009   -8996030.
 -18.6000004   -8997814.
 -18.4099998   -8999608.
 -18.2199993   -9001407.
 -18.0300007   -9003211.
 -17.8400002   -9005022.
 -17.6499996   -9006832.
 -17.4599991   -9008640.
 -17.2700005   -9010443.
 -17.0799999   -9012237.
 -16.8899994   -9014022.
 -16.7000008   -9015800.
 -16.5100002   -9017577.
 -16.3199997   -9019353.
 -16.1299992   -9021133.
 -15.9399996   -9022918.
 -15.75   -9024704.
 -15.5600004   -9026496.
 -15.3699999   -9028286.
 -15.1800003   -9030067.
 -14.9899998   -9031840.
 -14.8000002   -9033602.
 -14.6099997   -9035356.
 -14.4200001   -9037107.
 -14.2299995   -9038858.
 -14.04   -9040616.
 -13.8500004   -9042380.
 -13.6599998   -9044153.
 -13.4700003   -9045930.
 -13.2799997   -9047710.
 -13.0900002   -9049489.
 -12.8999996   -9051266.
 -12.71   -9053037.
 -12.5200005   -9054801.
 -12.3299999   -9056559.
 -12.1400003   -9058312.
 -11.9499998   -9060064.
 -11.7600002   -9061816.
 -11.5699997   -9063572.
 -11.3800001   -9065332.
 -11.1899996   -9067094.
 -11.   -9068860.
 -10.8100004   -9070626.
 -10.6199999   -9072388.
 -10.4300003   -9074152.
 -10.2399998   -9075912.
 -10.0500002   -9077670.
 -9.85999966   -9079427.
 -9.67000008   -9081184.
 -9.47999954   -9082941.
 -9.28999996   -9084697.
 -9.10000038   -9086448.
 -8.90999985   -9088193.
 -8.72000027   -9089934.
 -8.52999973   -9091672.
 -8.34000015   -9093406.
 -8.14999962   -9095141.
 -7.96000004   -9096876.
 -7.76999998   -9098610.
 -7.57999992   -9100343.
 -7.38999987   -9102072.
 -7.19999981   -9103797.
 -7.01000023   -9105514.
 -6.82000017   -9107227.
 -6.63000011   -9108936.
 -6.44000006   -9110647.
 -6.25   -9112365.
 -6.05999994   -9114094.
 -5.86999989   -9115838.
 -5.67999983   -9117591.
 -5.48999977   -9119346.
 -5.30000019   -9121104.
 -5.11000013   -9122855.
 -4.92000008   -9124601.
 -4.73000002   -9126342.
 -4.53999996   -9128084.
 -4.3499999   -9129827.
 -4.15999985   -9131576.
 -3.97000003   -9133331.
 -3.77999997   -9135088.
 -3.58999991   -9136843.
 -3.4000001   -9138593.
 -3.21000004   -9140333.
 -3.01999998   -9142064.
 -2.82999992   -9143793.
 -2.6400001   -9145520.
 -2.45000005   -9147253.
 -2.25999999   -9148994.
 -2.06999993   -9150743.
 -1.88   -9152496.
 -1.69000006   -9154255.
 -1.5   -9156008.
 -1.30999994   -9157757.
 -1.12   -9159500.
 -0.930000007   -9161237.
 -0.74000001   -9162973.
 -0.550000012   -9164713.
 -0.360000014   -9166463.
 -0.170000002   -9168221.
 1.999999955E-2   -9169986.
 0.209999993   -9171761.
 0.400000006   -9173539.
 0.589999974   -9175314.
 0.779999971   -9177085.
 0.970000029   -9178847.
 1.15999997   -9180603.
 1.35000002   -9182354.
 1.53999996   -9184102.
 1.73000002   -9185857.
 1.91999996   -9187616.
 2.1099999   -9189381.
 2.29999995   -9191153.
 2.49000001   -9192929.
 2.68000007   -9194705.
 2.86999989   -9196482.
 3.05999994   -9198251.
 3.25   -9200020.
 3.44000006   -9201789.
 3.63000011   -9203560.
 3.81999993   -9205335.
 4.01000023   -9207118.
 4.19999981   -9208905.
 4.38999987   -9210695.
 4.57999992   -9212489.
 4.76999998   -9214280.
 4.96000004   -9216067.
 5.1500001   -9217849.
 5.34000015   -9219629.
 5.53000021   -9221409.
 5.71999979   -9223193.
 5.90999985   -9224982.
 6.0999999   -9226778.
 6.28999996   -9228581.
 6.48000002   -9230383.
 6.67000008   -9232184.
 6.86000013   -9233988.
 7.05000019   -9235787.
 7.23999977   -9237580.
 7.42999983   -9239368.
 7.61999989   -9241146.
 7.80999994   -9242917.
 8.   -9244685.
 8.18999958   -9246450.
 8.38000011   -9248212.
 8.56999969   -9249978.
 8.76000023   -9251745.
 8.94999981   -9253512.
 9.14000034   -9255282.
 9.32999992   -9257049.
 9.52000046   -9258814.
 9.71000004   -9260575.
 9.89999962   -9262330.
 10.0900002   -9264086.
 10.2799997   -9265843.
 10.4700003   -9267603.
 10.6599998   -9269369.
 10.8500004   -9271137.
 11.04   -9272908.
 11.2299995   -9274677.
 11.4200001   -9276439.
 11.6099997   -9278195.
 11.8000002   -9279941.
 11.9899998   -9281673.
 12.1800003   -9283389.
 12.3699999   -9285095.
 12.5600004   -9286795.
 12.75   -9288495.
 12.9399996   -9290197.
 13.1300001   -9291910.
 13.3199997   -9293631.
 13.5100002   -9295355.
 13.6999998   -9297085.
 13.8900003   -9298814.
 14.0799999   -9300542.
 14.2700005   -9302266.
 14.46   -9303985.
 14.6499996   -9305701.
 14.8400002   -9307421.
 15.0299997   -9309148.
 15.2200003   -9310879.
 15.4099998   -9312617.
 15.6000004   -9314356.
 15.79   -9316090.
 15.9799995   -9317811.
 16.1700001   -9319523.
 16.3600006   -9321218.
 16.5499992   -9322901.
 16.7399998   -9324573.
 16.9300003   -9326236.
 17.1200008   -9327895.
 17.3099995   -9329556.
 17.5   -9331219.
 17.6900005   -9332883.
 17.8799992   -9334548.
 18.0699997   -9336211.
 18.2600002   -9337870.
 18.4500008   -9339528.
 18.6399994   -9341186.
 18.8299999   -9342847.
 19.0200005   -9344509.
 19.2099991   -9346174.
 19.3999996   -9347846.
 19.5900002   -9349519.
 19.7800007   -9351198.
 19.9699993   -9352878.
 20.1599998   -9354554.
 20.3500004   -9356221.
 20.5400009   -9357882.
 20.7299995   -9359534.
 20.9200001   -9361185.
 21.1100006   -9362837.
 21.2999992   -9364489.
 21.4899998   -9366146.
 21.6800003   -9367804.
 21.8700008   -9369465.
 22.0599995   -9371130.
 22.25   -9372798.
 22.4400005   -9374465.
 22.6299992   -9376131.
 22.8199997   -9377794.
 23.0100002   -9379453.
 23.2000008   -9381105.
 23.3899994   -9382752.
 23.5799999   -9384394.
 23.7700005   -9386037.
 23.9599991   -9387683.
 24.1499996   -9389335.
 24.3400002   -9391001.
 24.5300007   -9392678.
 24.7199993   -9394363.
 24.9099998   -9396048.
 25.1000004   -9397726.
 25.2900009   -9399390.
 25.4799995   -9401043.
 25.6700001   -9402684.
 25.8600006   -9404323.
 26.0499992   -9405964.
 26.2399998   -9407613.
 26.4300003   -9409268.
 26.6200008   -9410931.
 26.8099995   -9412595.
