 -30.   6144129.5
 -29.8099995   6145374.5
 -29.6200008   6146608.5
 -29.4300003   6147842.
 -29.2399998   6149074.5
 -29.0499992   6150312.
 -28.8600006   6151553.
 -28.6700001   6152802.
 -28.4799995   6154055.5
 -28.2900009   6155309.5
 -28.1000004   6156557.
 -27.9099998   6157800.
 -27.7199993   6159032.5
 -27.5300007   6160259.
 -27.3400002   6161479.5
 -27.1499996   6162703.
 -26.9599991   6163931.5
 -26.7700005   6165168.
 -26.5799999   6166415.5
 -26.3899994   6167670.
 -26.2000008   6168928.5
 -26.0100002   6170185.5
 -25.8199997   6171435.5
 -25.6299992   6172678.
 -25.4400005   6173907.
 -25.25   6175127.
 -25.0599995   6176347.5
 -24.8700008   6177570.
 -24.6800003   6178803.
 -24.4899998   6180048.5
 -24.2999992   6181309.5
 -24.1100006   6182579.
 -23.9200001   6183852.
 -23.7299995   6185119.5
 -23.5400009   6186378.5
 -23.3500004   6187626.5
 -23.1599998   6188861.
 -22.9699993   6190091.
 -22.7800007   6191325.
 -22.5900002   6192568.5
 -22.3999996   6193828.
 -22.2099991   6195102.5
 -22.0200005   6196385.5
 -21.8299999   6197668.5
 -21.6399994   6198940.5
 -21.4500008   6200198.
 -21.2600002   6201440.
 -21.0699997   6202669.
 -20.8799992   6203890.
 -20.6900005   6205110.
 -20.5   6206335.
 -20.3099995   6207563.
 -20.1200008   6208801.
 -19.9300003   6210039.
 -19.7399998   6211276.5
 -19.5499992   6212508.
 -19.3600006   6213730.
 -19.1700001   6214944.
 -18.9799995   6216149.
 -18.7900009   6217350.5
 -18.6000004   6218555.
 -18.4099998   6219766.
 -18.2199993   6220981.5
 -18.0300007   6222211.
 -17.8400002   6223454.
 -17.6499996   6224708.5
 -17.4599991   6225970.
 -17.2700005   6227232.5
 -17.0799999   6228490.
 -16.8899994   6229736.5
 -16.7000008   6230974.5
 -16.5100002   6232202.5
 -16.3199997   6233424.5
 -16.1299992   6234641.5
 -15.9399996   6235859.5
 -15.75   6237079.5
 -15.5600004   6238303.
 -15.3699999   6239531.5
 -15.1800003   6240761.5
 -14.9899998   6241990.
 -14.8000002   6243212.
 -14.6099997   6244427.
 -14.4200001   6245637.5
 -14.2299995   6246849.5
 -14.04   6248063.5
 -13.8500004   6249283.
 -13.6599998   6250511.5
 -13.4700003   6251745.
 -13.2799997   6252980.
 -13.0900002   6254214.
 -12.8999996   6255444.5
 -12.71   6256666.
 -12.5200005   6257877.5
 -12.3299999   6259085.5
 -12.1400003   6260292.
 -11.9499998   6261503.
 -11.7600002   6262723.5
 -11.5699997   6263953.5
 -11.3800001   6265191.
 -11.1899996   6266430.5
 -11.   6267670.
 -10.8100004   6268905.5
 -10.6199999   6270135.
 -10.4300003   6271357.5
 -10.2399998   6272572.
 -10.0500002   6273786.
 -9.85999966   6274999.
 -9.67000008   6276221.
 -9.47999954   6277449.
 -9.28999996   6278684.5
 -9.10000038   6279920.
 -8.90999985   6281152.5
 -8.72000027   6282378.5
 -8.52999973   6283595.
 -8.34000015   6284806.5
 -8.14999962   6286013.5
 -7.96000004   6287219.
 -7.76999998   6288424.
 -7.57999992   6289633.5
 -7.38999987   6290849.5
 -7.19999981   6292068.
 -7.01000023   6293284.
 -6.82000017   6294499.
 -6.63000011   6295710.
 -6.44000006   6296918.5
 -6.25   6298128.
 -6.05999994   6299342.5
 -5.86999989   6300559.5
 -5.67999983   6301779.5
 -5.48999977   6303004.5
 -5.30000019   6304228.
 -5.11000013   6305450.5
 -4.92000008   6306670.5
 -4.73000002   6307883.
 -4.53999996   6309088.
 -4.3499999   6310287.5
 -4.15999985   6311480.
 -3.97000003   6312672.5
 -3.77999997   6313866.
 -3.58999991   6315062.
 -3.4000001   6316261.
 -3.21000004   6317460.5
 -3.01999998   6318659.
 -2.82999992   6319858.
 -2.6400001   6321055.5
 -2.45000005   6322251.
 -2.25999999   6323450.
 -2.06999993   6324652.5
 -1.88   6325856.5
 -1.69000006   6327066.
 -1.5   6328280.5
 -1.30999994   6329491.5
 -1.12   6330698.
 -0.930000007   6331901.
 -0.74000001   6333098.
 -0.550000012   6334294.5
 -0.360000014   6335491.
 -0.170000002   6336690.
 1.999999955E-2   6337896.
 0.209999993   6339105.
 0.400000006   6340311.5
 0.589999974   6341519.
 0.779999971   6342720.5
 0.970000029   6343915.5
 1.15999997   6345107.
 1.35000002   6346297.5
 1.53999996   6347489.
 1.73000002   6348685.5
 1.91999996   6349887.
 2.1099999   6351093.
 2.29999995   6352299.5
 2.49000001   6353502.5
 2.68000007   6354698.5
 2.86999989   6355890.5
 3.05999994   6357072.
 3.25   6358252.
 3.44000006   6359431.
 3.63000011   6360611.
 3.81999993   6361794.5
 4.01000023   6362986.
 4.19999981   6364183.
 4.38999987   6365384.5
 4.57999992   6366591.
 4.76999998   6367796.
 4.96000004   6368998.5
 5.1500001   6370195.5
 5.34000015   6371385.
 5.53000021   6372569.
 5.71999979   6373750.
 5.90999985   6374929.
 6.0999999   6376111.5
 6.28999996   6377297.5
 6.48000002   6378492.5
 6.67000008   6379691.5
 6.86000013   6380898.5
 7.05000019   6382106.5
 7.23999977   6383315.
 7.42999983   6384523.5
 7.61999989   6385728.5
 7.80999994   6386934.
 8.   6388136.
 8.18999958   6389341.5
 8.38000011   6390550.
 8.56999969   6391759.5
 8.76000023   6392966.5
 8.94999981   6394169.5
 9.14000034   6395370.5
 9.32999992   6396563.5
 9.52000046   6397751.
 9.71000004   6398934.
 9.89999962   6400107.
 10.0900002   6401281.5
 10.2799997   6402456.
 10.4700003   6403633.5
 10.6599998   6404815.
 10.8500004   6406002.5
 11.04   6407190.
 11.2299995   6408380.
 11.4200001   6409571.
 11.6099997   6410759.
 11.8000002   6411944.5
 11.9899998   6413124.5
 12.1800003   6414302.
 12.3699999   6415479.
 12.5600004   6416660.
 12.75   6417851.
 12.9399996   6419046.5
 13.1300001   6420246.5
 13.3199997   6421445.5
 13.5100002   6422640.
 13.6999998   6423825.
 13.8900003   6425004.5
 14.0799999   6426181.5
 14.2700005   6427356.5
 14.46   6428534.5
 14.6499996   6429718.
 14.8400002   6430908.
 15.0299997   6432107.
 15.2200003   6433305.
 15.4099998   6434499.5
 15.6000004   6435686.
 15.79   6436861.5
 15.9799995   6438034.
 16.1700001   6439205.5
 16.3600006   6440379.5
 16.5499992   6441553.
 16.7399998   6442729.5
 16.9300003   6443902.
 17.1200008   6445068.
 17.3099995   6446230.5
 17.5   6447384.
 17.6900005   6448531.
 17.8799992   6449672.5
 18.0699997   6450809.5
 18.2600002   6451945.5
 18.4500008   6453085.
 18.6399994   6454225.5
 18.8299999   6455368.
 19.0200005   6456513.
 19.2099991   6457659.
 19.3999996   6458813.5
 19.5900002   6459973.5
 19.7800007   6461140.
 19.9699993   6462309.
 20.1599998   6463477.
 20.3500004   6464641.
 20.5400009   6465800.
 20.7299995   6466953.
 20.9200001   6468106.
 21.1100006   6469258.
 21.2999992   6470409.5
 21.4899998   6471566.
 21.6800003   6472724.5
 21.8700008   6473882.5
 22.0599995   6475038.5
 22.25   6476184.5
 22.4400005   6477314.
 22.6299992   6478430.5
 22.8199997   6479534.
 23.0100002   6480633.
 23.2000008   6481735.5
 23.3899994   6482844.5
 23.5799999   6483963.
 23.7700005   6485095.5
 23.9599991   6486236.5
 24.1499996   6487383.
 24.3400002   6488532.
 24.5300007   6489674.5
 24.7199993   6490807.
 24.9099998   6491932.5
 25.1000004   6493052.
 25.2900009   6494170.5
 25.4799995   6495297.
 25.6700001   6496431.
 25.8600006   6497571.5
 26.0499992   6498717.5
 26.2399998   6499865.
 26.4300003   6501009.5
 26.6200008   6502149.5
 26.8099995   6503284.5
