 -30.   1310523.5
 -29.8099995   1310770.75
 -29.6200008   1311012.75
 -29.4300003   1311267.38
 -29.2399998   1311533.75
 -29.0499992   1311803.5
 -28.8600006   1312057.5
 -28.6700001   1312297.
 -28.4799995   1312534.
 -28.2900009   1312784.13
 -28.1000004   1313053.
 -27.9099998   1313324.13
 -27.7199993   1313584.63
 -27.5300007   1313829.38
 -27.3400002   1314065.
 -27.1499996   1314312.5
 -26.9599991   1314576.13
 -26.7700005   1314846.25
 -26.5799999   1315106.5
 -26.3899994   1315349.
 -26.2000008   1315583.25
 -26.0100002   1315825.5
 -25.8199997   1316084.63
 -25.6299992   1316352.5
 -25.4400005   1316615.75
 -25.25   1316860.88
 -25.0599995   1317097.13
 -24.8700008   1317338.75
 -24.6800003   1317599.5
 -24.4899998   1317871.75
 -24.2999992   1318139.88
 -24.1100006   1318391.13
 -23.9200001   1318630.
 -23.7299995   1318872.38
 -23.5400009   1319133.13
 -23.3500004   1319407.25
 -23.1599998   1319678.38
 -22.9699993   1319933.38
 -22.7800007   1320173.63
 -22.5900002   1320416.25
 -22.3999996   1320674.5
 -22.2099991   1320948.88
 -22.0200005   1321222.38
 -21.8299999   1321482.13
 -21.6399994   1321726.63
 -21.4500008   1321972.88
 -21.2600002   1322233.38
 -21.0699997   1322508.75
 -20.8799992   1322791.38
 -20.6900005   1323058.5
 -20.5   1323313.63
 -20.3099995   1323563.
 -20.1200008   1323820.5
 -19.9300003   1324091.88
 -19.7399998   1324370.38
 -19.5499992   1324641.75
 -19.3600006   1324896.38
 -19.1700001   1325139.88
 -18.9799995   1325391.88
 -18.7900009   1325662.75
 -18.6000004   1325943.13
 -18.4099998   1326217.5
 -18.2199993   1326474.38
 -18.0300007   1326721.63
 -17.8400002   1326975.25
 -17.6499996   1327245.38
 -17.4599991   1327524.75
 -17.2700005   1327801.38
 -17.0799999   1328060.
 -16.8899994   1328306.5
 -16.7000008   1328556.13
 -16.5100002   1328822.13
 -16.3199997   1329100.88
 -16.1299992   1329383.25
 -15.9399996   1329651.5
 -15.75   1329903.38
 -15.5600004   1330154.88
 -15.3699999   1330421.25
 -15.1800003   1330701.63
 -14.9899998   1330983.38
 -14.8000002   1331253.63
 -14.6099997   1331504.38
 -14.4200001   1331753.38
 -14.2299995   1332009.63
 -14.04   1332282.63
 -13.8500004   1332563.13
 -13.6599998   1332829.75
 -13.4700003   1333082.75
 -13.2799997   1333323.75
 -13.0900002   1333577.5
 -12.8999996   1333848.
 -12.71   1334126.63
 -12.5200005   1334396.88
 -12.3299999   1334651.63
 -12.1400003   1334897.38
 -11.9499998   1335152.5
 -11.7600002   1335423.
 -11.5699997   1335707.
 -11.3800001   1335981.13
 -11.1899996   1336237.5
 -11.   1336485.88
 -10.8100004   1336737.75
 -10.6199999   1337004.75
 -10.4300003   1337285.38
 -10.2399998   1337561.75
 -10.0500002   1337821.63
 -9.85999966   1338067.88
 -9.67000008   1338319.
 -9.47999954   1338587.13
 -9.28999996   1338870.13
 -9.10000038   1339150.38
 -8.90999985   1339416.63
 -8.72000027   1339669.13
 -8.52999973   1339928.25
 -8.34000015   1340204.88
 -8.14999962   1340500.38
 -7.96000004   1340796.5
 -7.76999998   1341074.38
 -7.57999992   1341333.
 -7.38999987   1341590.75
 -7.19999981   1341868.38
 -7.01000023   1342164.38
 -6.82000017   1342461.88
 -6.63000011   1342745.
 -6.44000006   1343011.87
 -6.25   1343278.63
 -6.05999994   1343563.63
 -5.86999989   1343867.75
 -5.67999983   1344175.38
 -5.48999977   1344468.75
 -5.30000019   1344744.38
 -5.11000013   1345017.25
 -4.92000008   1345304.13
 -4.73000002   1345608.25
 -4.53999996   1345916.
 -4.3499999   1346209.75
 -4.15999985   1346484.25
 -3.97000003   1346752.88
 -3.77999997   1347026.63
 -3.58999991   1347316.63
 -3.4000001   1347610.
 -3.21000004   1347890.13
 -3.01999998   1348154.5
 -2.82999992   1348407.25
 -2.6400001   1348665.13
 -2.45000005   1348937.75
 -2.25999999   1349221.75
 -2.06999993   1349498.5
 -1.88   1349755.75
 -1.69000006   1350004.
 -1.5   1350256.
 -1.30999994   1350520.5
 -1.12   1350796.75
 -0.930000007   1351067.5
 -0.74000001   1351328.13
 -0.550000012   1351580.13
 -0.360000014   1351832.38
 -0.170000002   1352098.75
 1.999999955E-2   1352377.
 0.209999993   1352653.38
 0.400000006   1352918.25
 0.589999974   1353173.13
 0.779999971   1353428.38
 0.970000029   1353694.13
 1.15999997   1353971.38
 1.35000002   1354251.5
 1.53999996   1354519.5
 1.73000002   1354777.63
 1.91999996   1355034.25
 2.1099999   1355298.88
 2.29999995   1355576.13
 2.49000001   1355854.38
 2.68000007   1356125.63
 2.86999989   1356383.63
 3.05999994   1356638.25
 3.25   1356901.75
 3.44000006   1357174.75
 3.63000011   1357458.13
 3.81999993   1357735.25
 4.01000023   1357998.13
 4.19999981   1358257.75
 4.38999987   1358525.38
 4.57999992   1358806.13
 4.76999998   1359093.
 4.96000004   1359378.88
 5.1500001   1359649.63
 5.34000015   1359911.75
 5.53000021   1360177.75
 5.71999979   1360457.5
 5.90999985   1360750.25
 6.0999999   1361041.75
 6.28999996   1361323.38
 6.48000002   1361593.5
 6.67000008   1361864.
 6.86000013   1362138.88
 7.05000019   1362427.63
 7.23999977   1362715.25
 7.42999983   1362991.25
 7.61999989   1363250.38
 7.80999994   1363507.5
 8.   1363775.25
 8.18999958   1364055.
 8.38000011   1364336.88
 8.56999969   1364611.5
 8.76000023   1364873.5
 8.94999981   1365130.13
 9.14000034   1365391.88
 9.32999992   1365665.5
 9.52000046   1365941.25
 9.71000004   1366212.13
 9.89999962   1366470.62
 10.0900002   1366725.13
 10.2799997   1366982.88
 10.4700003   1367256.5
 10.6599998   1367538.63
 10.8500004   1367817.38
 11.04   1368085.75
 11.2299995   1368348.25
 11.4200001   1368615.25
 11.6099997   1368894.88
 11.8000002   1369181.25
 11.9899998   1369465.25
 12.1800003   1369740.38
 12.3699999   1370005.63
 12.5600004   1370275.75
 12.75   1370555.38
 12.9399996   1370843.25
 13.1300001   1371132.38
 13.3199997   1371409.38
 13.5100002   1371681.
 13.6999998   1371950.
 13.8900003   1372228.63
 14.0799999   1372515.13
 14.2700005   1372800.25
 14.46   1373073.
 14.6499996   1373335.88
 14.8400002   1373599.87
 15.0299997   1373871.88
 15.2200003   1374153.63
 15.4099998   1374443.
 15.6000004   1374724.13
 15.79   1374998.
 15.9799995   1375269.5
 16.1700001   1375545.
 16.3600006   1375834.
 16.5499992   1376132.13
 16.7399998   1376424.5
 16.9300003   1376706.13
 17.1200008   1376980.38
 17.3099995   1377254.88
 17.5   1377543.13
 17.6900005   1377837.88
 17.8799992   1378128.13
 18.0699997   1378400.75
 18.2600002   1378662.13
 18.4500008   1378920.25
 18.6399994   1379194.25
 18.8299999   1379480.
 19.0200005   1379762.75
 19.2099991   1380032.
 19.3999996   1380289.13
 19.5900002   1380548.38
 19.7800007   1380827.
 19.9699993   1381120.75
 20.1599998   1381414.75
 20.3500004   1381695.25
 20.5400009   1381962.25
 20.7299995   1382228.13
 20.9200001   1382510.38
 21.1100006   1382807.5
 21.2999992   1383104.63
 21.4899998   1383382.88
 21.6800003   1383643.38
 21.8700008   1383899.13
 22.0599995   1384168.
 22.25   1384454.5
 22.4400005   1384742.13
 22.6299992   1385012.63
 22.8199997   1385268.
 23.0100002   1385521.12
 23.2000008   1385785.88
 23.3899994   1386068.75
 23.5799999   1386352.13
 23.7700005   1386618.5
 23.9599991   1386867.38
 24.1499996   1387110.13
 24.3400002   1387371.88
 24.5300007   1387651.5
 24.7199993   1387939.38
 24.9099998   1388216.13
 25.1000004   1388476.38
 25.2900009   1388726.5
 25.4799995   1388992.13
 25.6700001   1389273.75
 25.8600006   1389564.63
 26.0499992   1389850.25
 26.2399998   1390116.63
 26.4300003   1390374.13
 26.6200008   1390640.5
 26.8099995   1390926.88
