 -30.   7424529.
 -29.8099995   7426045.
 -29.6200008   7427564.
 -29.4300003   7429082.
 -29.2399998   7430601.5
 -29.0499992   7432119.
 -28.8600006   7433636.
 -28.6700001   7435148.5
 -28.4799995   7436662.5
 -28.2900009   7438175.5
 -28.1000004   7439686.5
 -27.9099998   7441199.
 -27.7199993   7442711.5
 -27.5300007   7444226.
 -27.3400002   7445740.5
 -27.1499996   7447255.5
 -26.9599991   7448768.5
 -26.7700005   7450281.5
 -26.5799999   7451791.5
 -26.3899994   7453299.
 -26.2000008   7454808.
 -26.0100002   7456314.
 -25.8199997   7457818.5
 -25.6299992   7459327.5
 -25.4400005   7460834.5
 -25.25   7462345.
 -25.0599995   7463855.5
 -24.8700008   7465365.5
 -24.6800003   7466874.5
 -24.4899998   7468383.
 -24.2999992   7469885.
 -24.1100006   7471389.
 -23.9200001   7472890.5
 -23.7299995   7474392.
 -23.5400009   7475893.5
 -23.3500004   7477398.
 -23.1599998   7478901.
 -22.9699993   7480406.5
 -22.7800007   7481911.5
 -22.5900002   7483416.
 -22.3999996   7484920.5
 -22.2099991   7486422.
 -22.0200005   7487923.
 -21.8299999   7489420.
 -21.6399994   7490915.5
 -21.4500008   7492409.
 -21.2600002   7493905.5
 -21.0699997   7495401.5
 -20.8799992   7496897.
 -20.6900005   7498396.
 -20.5   7499895.5
 -20.3099995   7501395.5
 -20.1200008   7502894.
 -19.9300003   7504390.
 -19.7399998   7505881.5
 -19.5499992   7507375.
 -19.3600006   7508866.5
 -19.1700001   7510358.
 -18.9799995   7511849.5
 -18.7900009   7513344.5
 -18.6000004   7514840.5
 -18.4099998   7516333.5
 -18.2199993   7517827.
 -18.0300007   7519319.
 -17.8400002   7520807.5
 -17.6499996   7522292.5
 -17.4599991   7523776.
 -17.2700005   7525257.
 -17.0799999   7526738.5
 -16.8899994   7528219.5
 -16.7000008   7529703.5
 -16.5100002   7531188.5
 -16.3199997   7532675.5
 -16.1299992   7534158.5
 -15.9399996   7535641.
 -15.75   7537123.5
 -15.5600004   7538601.5
 -15.3699999   7540078.
 -15.1800003   7541553.5
 -14.9899998   7543028.5
 -14.8000002   7544506.5
 -14.6099997   7545986.
 -14.4200001   7547469.5
 -14.2299995   7548954.
 -14.04   7550437.5
 -13.8500004   7551917.5
 -13.6599998   7553395.
 -13.4700003   7554867.5
 -13.2799997   7556338.5
 -13.0900002   7557810.5
 -12.8999996   7559281.
 -12.71   7560756.5
 -12.5200005   7562233.
 -12.3299999   7563708.
 -12.1400003   7565186.
 -11.9499998   7566660.
 -11.7600002   7568132.
 -11.5699997   7569598.5
 -11.3800001   7571064.
 -11.1899996   7572525.5
 -11.   7573985.
 -10.8100004   7575446.5
 -10.6199999   7576904.
 -10.4300003   7578363.5
 -10.2399998   7579823.5
 -10.0500002   7581284.5
 -9.85999966   7582745.
 -9.67000008   7584208.5
 -9.47999954   7585669.
 -9.28999996   7587129.5
 -9.10000038   7588589.
 -8.90999985   7590045.
 -8.72000027   7591502.
 -8.52999973   7592956.5
 -8.34000015   7594410.5
 -8.14999962   7595865.
 -7.96000004   7597322.
 -7.76999998   7598777.5
 -7.57999992   7600236.5
 -7.38999987   7601694.
 -7.19999981   7603153.
 -7.01000023   7604612.
 -6.82000017   7606068.
 -6.63000011   7607524.5
 -6.44000006   7608978.5
 -6.25   7610431.
 -6.05999994   7611885.
 -5.86999989   7613337.5
 -5.67999983   7614793.
 -5.48999977   7616253.5
 -5.30000019   7617717.5
 -5.11000013   7619178.
 -4.92000008   7620641.5
 -4.73000002   7622106.
 -4.53999996   7623566.5
 -4.3499999   7625024.
 -4.15999985   7626480.5
 -3.97000003   7627936.
 -3.77999997   7629390.
 -3.58999991   7630845.5
 -3.4000001   7632305.
 -3.21000004   7633766.5
 -3.01999998   7635233.
 -2.82999992   7636699.5
 -2.6400001   7638164.5
 -2.45000005   7639626.5
 -2.25999999   7641087.
 -2.06999993   7642539.
 -1.88   7643987.5
 -1.69000006   7645437.5
 -1.5   7646887.
 -1.30999994   7648341.5
 -1.12   7649799.5
 -0.930000007   7651261.5
 -0.74000001   7652721.5
 -0.550000012   7654179.5
 -0.360000014   7655633.5
 -0.170000002   7657084.
 1.999999955E-2   7658531.5
 0.209999993   7659972.
 0.400000006   7661413.5
 0.589999974   7662856.
 0.779999971   7664297.5
 0.970000029   7665740.5
 1.15999997   7667183.5
 1.35000002   7668621.
 1.53999996   7670055.
 1.73000002   7671485.
 1.91999996   7672911.5
 2.1099999   7674338.
 2.29999995   7675761.
 2.49000001   7677187.5
 2.68000007   7678617.
 2.86999989   7680047.5
 3.05999994   7681481.5
 3.25   7682920.
 3.44000006   7684359.
 3.63000011   7685795.5
 3.81999993   7687229.5
 4.01000023   7688657.
 4.19999981   7690081.
 4.38999987   7691504.5
 4.57999992   7692923.
 4.76999998   7694342.5
 4.96000004   7695767.5
 5.1500001   7697193.5
 5.34000015   7698624.5
 5.53000021   7700059.
 5.71999979   7701490.
 5.90999985   7702922.5
 6.0999999   7704348.
 6.28999996   7705770.5
 6.48000002   7707191.5
 6.67000008   7708610.
 6.86000013   7710029.5
 7.05000019   7711453.5
 7.23999977   7712881.
 7.42999983   7714309.5
 7.61999989   7715739.5
 7.80999994   7717171.
 8.   7718602.
 8.18999958   7720027.
 8.38000011   7721450.
 8.56999969   7722868.
 8.76000023   7724282.
 8.94999981   7725698.
 9.14000034   7727113.5
 9.32999992   7728530.
 9.52000046   7729949.5
 9.71000004   7731370.5
 9.89999962   7732791.5
 10.0900002   7734214.
 10.2799997   7735630.5
 10.4700003   7737043.5
 10.6599998   7738454.
 10.8500004   7739860.5
 11.04   7741268.5
 11.2299995   7742676.
 11.4200001   7744086.5
 11.6099997   7745499.
 11.8000002   7746915.5
 11.9899998   7748335.
 12.1800003   7749755.
 12.3699999   7751175.5
 12.5600004   7752590.5
 12.75   7753998.5
 12.9399996   7755399.
 13.1300001   7756796.5
 13.3199997   7758190.
 13.5100002   7759586.
 13.6999998   7760986.5
 13.8900003   7762389.
 14.0799999   7763799.5
 14.2700005   7765209.
 14.46   7766616.5
 14.6499996   7768022.5
 14.8400002   7769422.
 15.0299997   7770813.5
 15.2200003   7772201.
 15.4099998   7773587.
 15.6000004   7774978.5
 15.79   7776373.
 15.9799995   7777775.
 16.1700001   7779180.5
 16.3600006   7780589.5
 16.5499992   7781997.
 16.7399998   7783399.
 16.9300003   7784801.
 17.1200008   7786194.5
 17.3099995   7787588.
 17.5   7788983.
 17.6900005   7790380.5
 17.8799992   7791783.5
 18.0699997   7793191.
 18.2600002   7794602.5
 18.4500008   7796014.5
 18.6399994   7797422.5
 18.8299999   7798830.
 19.0200005   7800228.
 19.2099991   7801625.
 19.3999996   7803016.
 19.5900002   7804404.5
 19.7800007   7805790.5
 19.9699993   7807177.5
 20.1599998   7808565.
 20.3500004   7809958.5
 20.5400009   7811354.5
 20.7299995   7812752.
 20.9200001   7814150.
 21.1100006   7815544.5
 21.2999992   7816935.
 21.4899998   7818322.
 21.6800003   7819706.
 21.8700008   7821085.
 22.0599995   7822467.5
 22.25   7823849.5
 22.4400005   7825238.
 22.6299992   7826632.5
 22.8199997   7828029.
 23.0100002   7829426.5
 23.2000008   7830819.5
 23.3899994   7832208.5
 23.5799999   7833591.5
 23.7700005   7834970.5
 23.9599991   7836347.5
 24.1499996   7837720.
 24.3400002   7839094.
 24.5300007   7840466.5
 24.7199993   7841839.5
 24.9099998   7843215.
 25.1000004   7844588.
 25.2900009   7845961.
 25.4799995   7847336.
 25.6700001   7848706.5
 25.8600006   7850077.
 26.0499992   7851447.5
 26.2399998   7852816.
 26.4300003   7854184.
 26.6200008   7855550.5
 26.8099995   7856918.
