 -30.   8060872.
 -29.8099995   8062519.
 -29.6200008   8064168.
 -29.4300003   8065819.
 -29.2399998   8067467.
 -29.0499992   8069114.5
 -28.8600006   8070758.
 -28.6700001   8072403.
 -28.4799995   8074045.
 -28.2900009   8075688.
 -28.1000004   8077332.
 -27.9099998   8078977.
 -27.7199993   8080623.5
 -27.5300007   8082268.
 -27.3400002   8083914.
 -27.1499996   8085557.5
 -26.9599991   8087198.
 -26.7700005   8088838.5
 -26.5799999   8090479.5
 -26.3899994   8092117.5
 -26.2000008   8093755.
 -26.0100002   8095396.5
 -25.8199997   8097037.
 -25.6299992   8098677.5
 -25.4400005   8100318.5
 -25.25   8101959.
 -25.0599995   8103599.
 -24.8700008   8105238.
 -24.6800003   8106873.5
 -24.4899998   8108510.5
 -24.2999992   8110147.
 -24.1100006   8111783.5
 -23.9200001   8113419.
 -23.7299995   8115054.
 -23.5400009   8116689.
 -23.3500004   8118324.5
 -23.1599998   8119958.
 -22.9699993   8121592.5
 -22.7800007   8123224.5
 -22.5900002   8124860.
 -22.3999996   8126492.
 -22.2099991   8128122.5
 -22.0200005   8129753.
 -21.8299999   8131382.
 -21.6399994   8133009.
 -21.4500008   8134635.
 -21.2600002   8136265.
 -21.0699997   8137890.
 -20.8799992   8139518.
 -20.6900005   8141145.5
 -20.5   8142774.5
 -20.3099995   8144403.5
 -20.1200008   8146031.
 -19.9300003   8147658.5
 -19.7399998   8149285.5
 -19.5499992   8150909.
 -19.3600006   8152531.5
 -19.1700001   8154152.
 -18.9799995   8155773.5
 -18.7900009   8157393.
 -18.6000004   8159015.
 -18.4099998   8160639.
 -18.2199993   8162264.5
 -18.0300007   8163889.
 -17.8400002   8165510.5
 -17.6499996   8167133.5
 -17.4599991   8168754.
 -17.2700005   8170370.
 -17.0799999   8171982.5
 -16.8899994   8173599.
 -16.7000008   8175211.
 -16.5100002   8176823.5
 -16.3199997   8178436.5
 -16.1299992   8180051.5
 -15.9399996   8181667.5
 -15.75   8183280.5
 -15.5600004   8184893.
 -15.3699999   8186501.5
 -15.1800003   8188111.
 -14.9899998   8189721.
 -14.8000002   8191330.5
 -14.6099997   8192942.
 -14.4200001   8194554.5
 -14.2299995   8196167.5
 -14.04   8197781.5
 -13.8500004   8199395.5
 -13.6599998   8201004.
 -13.4700003   8202608.5
 -13.2799997   8204213.5
 -13.0900002   8205814.5
 -12.8999996   8207416.5
 -12.71   8209020.5
 -12.5200005   8210624.5
 -12.3299999   8212230.
 -12.1400003   8213834.
 -11.9499998   8215435.5
 -11.7600002   8217034.5
 -11.5699997   8218631.
 -11.3800001   8220226.5
 -11.1899996   8221821.5
 -11.   8223415.5
 -10.8100004   8225014.
 -10.6199999   8226613.
 -10.4300003   8228209.5
 -10.2399998   8229806.
 -10.0500002   8231396.
 -9.85999966   8232982.5
 -9.67000008   8234566.
 -9.47999954   8236146.
 -9.28999996   8237725.
 -9.10000038   8239310.
 -8.90999985   8240896.5
 -8.72000027   8242484.5
 -8.52999973   8244075.
 -8.34000015   8245664.5
 -8.14999962   8247255.
 -7.96000004   8248839.
 -7.76999998   8250421.
 -7.57999992   8252003.
 -7.38999987   8253589.
 -7.19999981   8255175.
 -7.01000023   8256765.
 -6.82000017   8258360.
 -6.63000011   8259951.
 -6.44000006   8261544.
 -6.25   8263129.5
 -6.05999994   8264713.
 -5.86999989   8266290.5
 -5.67999983   8267868.
 -5.48999977   8269446.
 -5.30000019   8271028.
 -5.11000013   8272612.5
 -4.92000008   8274204.5
 -4.73000002   8275797.
 -4.53999996   8277389.5
 -4.3499999   8278982.5
 -4.15999985   8280570.5
 -3.97000003   8282158.5
 -3.77999997   8283743.5
 -3.58999991   8285331.
 -3.4000001   8286919.
 -3.21000004   8288509.
 -3.01999998   8290104.
 -2.82999992   8291700.5
 -2.6400001   8293300.
 -2.45000005   8294898.
 -2.25999999   8296492.
 -2.06999993   8298083.5
 -1.88   8299669.
 -1.69000006   8301250.5
 -1.5   8302830.
 -1.30999994   8304409.
 -1.12   8305990.
 -0.930000007   8307572.
 -0.74000001   8309158.
 -0.550000012   8310744.
 -0.360000014   8312329.5
 -0.170000002   8313917.
 1.999999955E-2   8315499.5
 0.209999993   8317082.5
 0.400000006   8318665.
 0.589999974   8320246.5
 0.779999971   8321827.
 0.970000029   8323408.
 1.15999997   8324990.
 1.35000002   8326570.
 1.53999996   8328149.5
 1.73000002   8329726.5
 1.91999996   8331300.5
 2.1099999   8332871.5
 2.29999995   8334438.
 2.49000001   8336004.
 2.68000007   8337571.
 2.86999989   8339135.5
 3.05999994   8340701.5
 3.25   8342269.
 3.44000006   8343835.
 3.63000011   8345402.
 3.81999993   8346968.
 4.01000023   8348532.5
 4.19999981   8350097.
 4.38999987   8351664.
 4.57999992   8353230.
 4.76999998   8354798.5
 4.96000004   8356366.
 5.1500001   8357936.
 5.34000015   8359501.
 5.53000021   8361066.5
 5.71999979   8362632.5
 5.90999985   8364195.5
 6.0999999   8365760.
 6.28999996   8367323.
 6.48000002   8368886.
 6.67000008   8370448.5
 6.86000013   8372011.5
 7.05000019   8373573.5
 7.23999977   8375138.
 7.42999983   8376702.
 7.61999989   8378265.5
 7.80999994   8379829.5
 8.   8381393.
 8.18999958   8382954.
 8.38000011   8384514.
 8.56999969   8386074.5
 8.76000023   8387632.5
 8.94999981   8389188.
 9.14000034   8390745.
 9.32999992   8392304.
 9.52000046   8393861.
 9.71000004   8395422.
 9.89999962   8396983.
 10.0900002   8398545.
 10.2799997   8400106.
 10.4700003   8401663.
 10.6599998   8403215.
 10.8500004   8404763.
 11.04   8406306.
 11.2299995   8407848.
 11.4200001   8409391.
 11.6099997   8410938.
 11.8000002   8412488.
 11.9899998   8414042.
 12.1800003   8415596.
 12.3699999   8417148.
 12.5600004   8418696.
 12.75   8420238.
 12.9399996   8421772.
 13.1300001   8423304.
 13.3199997   8424834.
 13.5100002   8426367.
 13.6999998   8427907.
 13.8900003   8429451.
 14.0799999   8431001.
 14.2700005   8432551.
 14.46   8434100.
 14.6499996   8435640.
 14.8400002   8437175.
 15.0299997   8438704.
 15.2200003   8440226.
 15.4099998   8441750.
 15.6000004   8443278.
 15.79   8444811.
 15.9799995   8446350.
 16.1700001   8447897.
 16.3600006   8449447.
 16.5499992   8450994.
 16.7399998   8452535.
 16.9300003   8454070.
 17.1200008   8455595.
 17.3099995   8457118.
 17.5   8458641.
 17.6900005   8460167.
 17.8799992   8461696.
 18.0699997   8463231.
 18.2600002   8464770.
 18.4500008   8466308.
 18.6399994   8467840.
 18.8299999   8469369.
 19.0200005   8470892.
 19.2099991   8472410.
 19.3999996   8473929.
 19.5900002   8475450.
 19.7800007   8476970.
 19.9699993   8478495.
 20.1599998   8480020.
 20.3500004   8481544.
 20.5400009   8483069.
 20.7299995   8484594.
 20.9200001   8486121.
 21.1100006   8487650.
 21.2999992   8489182.
 21.4899998   8490713.
 21.6800003   8492240.
 21.8700008   8493762.
 22.0599995   8495275.
 22.25   8496787.
 22.4400005   8498293.
 22.6299992   8499801.
 22.8199997   8501315.
 23.0100002   8502833.
 23.2000008   8504355.
 23.3899994   8505878.
 23.5799999   8507402.
 23.7700005   8508919.
 23.9599991   8510433.
 24.1499996   8511946.
 24.3400002   8513455.
 24.5300007   8514968.
 24.7199993   8516482.
 24.9099998   8517998.
 25.1000004   8519515.
 25.2900009   8521031.
 25.4799995   8522543.
 25.6700001   8524050.
 25.8600006   8525554.
 26.0499992   8527055.
 26.2399998   8528557.
 26.4300003   8530059.
 26.6200008   8531564.
 26.8099995   8533070.
