 -30.   -3092081.
 -29.8099995   -3092717.
 -29.6200008   -3093355.5
 -29.4300003   -3093995.
 -29.2399998   -3094632.
 -29.0499992   -3095267.5
 -28.8600006   -3095899.5
 -28.6700001   -3096530.25
 -28.4799995   -3097157.75
 -28.2900009   -3097787.75
 -28.1000004   -3098417.25
 -27.9099998   -3099046.75
 -27.7199993   -3099678.5
 -27.5300007   -3100307.25
 -27.3400002   -3100934.5
 -27.1499996   -3101559.25
 -26.9599991   -3102183.25
 -26.7700005   -3102807.25
 -26.5799999   -3103432.5
 -26.3899994   -3104058.5
 -26.2000008   -3104688.25
 -26.0100002   -3105320.75
 -25.8199997   -3105954.25
 -25.6299992   -3106585.5
 -25.4400005   -3107215.5
 -25.25   -3107846.
 -25.0599995   -3108474.25
 -24.8700008   -3109102.5
 -24.6800003   -3109730.25
 -24.4899998   -3110359.5
 -24.2999992   -3110991.25
 -24.1100006   -3111623.
 -23.9200001   -3112254.5
 -23.7299995   -3112884.5
 -23.5400009   -3113512.75
 -23.3500004   -3114137.75
 -23.1599998   -3114764.25
 -22.9699993   -3115391.5
 -22.7800007   -3116020.75
 -22.5900002   -3116650.75
 -22.3999996   -3117283.
 -22.2099991   -3117916.25
 -22.0200005   -3118546.
 -21.8299999   -3119176.
 -21.6399994   -3119803.
 -21.4500008   -3120429.25
 -21.2600002   -3121054.
 -21.0699997   -3121678.
 -20.8799992   -3122305.25
 -20.6900005   -3122932.75
 -20.5   -3123560.5
 -20.3099995   -3124190.5
 -20.1200008   -3124820.
 -19.9300003   -3125448.5
 -19.7399998   -3126077.25
 -19.5499992   -3126702.25
 -19.3600006   -3127326.
 -19.1700001   -3127950.5
 -18.9799995   -3128573.5
 -18.7900009   -3129199.25
 -18.6000004   -3129823.
 -18.4099998   -3130452.
 -18.2199993   -3131079.
 -18.0300007   -3131709.
 -17.8400002   -3132336.75
 -17.6499996   -3132966.25
 -17.4599991   -3133592.25
 -17.2700005   -3134218.25
 -17.0799999   -3134840.25
 -16.8899994   -3135463.5
 -16.7000008   -3136084.75
 -16.5100002   -3136707.75
 -16.3199997   -3137332.25
 -16.1299992   -3137957.
 -15.9399996   -3138581.75
 -15.75   -3139206.
 -15.5600004   -3139827.75
 -15.3699999   -3140446.
 -15.1800003   -3141062.
 -14.9899998   -3141678.
 -14.8000002   -3142292.
 -14.6099997   -3142904.5
 -14.4200001   -3143522.75
 -14.2299995   -3144141.25
 -14.04   -3144761.
 -13.8500004   -3145382.5
 -13.6599998   -3146000.75
 -13.4700003   -3146618.
 -13.2799997   -3147233.75
 -13.0900002   -3147848.75
 -12.8999996   -3148462.75
 -12.71   -3149077.75
 -12.5200005   -3149694.75
 -12.3299999   -3150313.75
 -12.1400003   -3150936.
 -11.9499998   -3151560.25
 -11.7600002   -3152184.25
 -11.5699997   -3152806.25
 -11.3800001   -3153425.5
 -11.1899996   -3154039.25
 -11.   -3154649.75
 -10.8100004   -3155257.25
 -10.6199999   -3155864.25
 -10.4300003   -3156471.
 -10.2399998   -3157079.
 -10.0500002   -3157689.
 -9.85999966   -3158301.25
 -9.67000008   -3158915.25
 -9.47999954   -3159529.25
 -9.28999996   -3160140.75
 -9.10000038   -3160751.25
 -8.90999985   -3161358.75
 -8.72000027   -3161963.
 -8.52999973   -3162569.25
 -8.34000015   -3163177.
 -8.14999962   -3163788.
 -7.96000004   -3164402.25
 -7.76999998   -3165019.25
 -7.57999992   -3165639.25
 -7.38999987   -3166260.
 -7.19999981   -3166879.75
 -7.01000023   -3167495.5
 -6.82000017   -3168110.25
 -6.63000011   -3168723.
 -6.44000006   -3169337.75
 -6.25   -3169955.25
 -6.05999994   -3170571.5
 -5.86999989   -3171191.25
 -5.67999983   -3171810.25
 -5.48999977   -3172428.
 -5.30000019   -3173044.75
 -5.11000013   -3173658.25
 -4.92000008   -3174268.75
 -4.73000002   -3174873.25
 -4.53999996   -3175475.75
 -4.3499999   -3176074.
 -4.15999985   -3176669.75
 -3.97000003   -3177265.5
 -3.77999997   -3177861.25
 -3.58999991   -3178456.5
 -3.4000001   -3179054.5
 -3.21000004   -3179657.
 -3.01999998   -3180262.5
 -2.82999992   -3180869.25
 -2.6400001   -3181478.
 -2.45000005   -3182088.25
 -2.25999999   -3182697.25
 -2.06999993   -3183305.25
 -1.88   -3183912.75
 -1.69000006   -3184519.5
 -1.5   -3185126.25
 -1.30999994   -3185734.
 -1.12   -3186342.75
 -0.930000007   -3186951.
 -0.74000001   -3187560.5
 -0.550000012   -3188165.
 -0.360000014   -3188764.75
 -0.170000002   -3189361.25
 1.999999955E-2   -3189954.75
 0.209999993   -3190547.25
 0.400000006   -3191139.5
 0.589999974   -3191734.25
 0.779999971   -3192329.75
 0.970000029   -3192925.
 1.15999997   -3193524.
 1.35000002   -3194118.5
 1.53999996   -3194713.75
 1.73000002   -3195307.5
 1.91999996   -3195896.25
 2.1099999   -3196485.5
 2.29999995   -3197076.75
 2.49000001   -3197671.
 2.68000007   -3198268.75
 2.86999989   -3198868.5
 3.05999994   -3199470.75
 3.25   -3200073.75
 3.44000006   -3200677.5
 3.63000011   -3201277.5
 3.81999993   -3201876.75
 4.01000023   -3202474.
 4.19999981   -3203071.5
 4.38999987   -3203666.5
 4.57999992   -3204260.75
 4.76999998   -3204855.
 4.96000004   -3205448.25
 5.1500001   -3206041.75
 5.34000015   -3206636.
 5.53000021   -3207230.75
 5.71999979   -3207827.75
 5.90999985   -3208423.75
 6.0999999   -3209019.75
 6.28999996   -3209614.
 6.48000002   -3210205.5
 6.67000008   -3210793.75
 6.86000013   -3211378.5
 7.05000019   -3211964.25
 7.23999977   -3212550.75
 7.42999983   -3213141.75
 7.61999989   -3213733.5
 7.80999994   -3214331.
 8.   -3214929.25
 8.18999958   -3215528.
 8.38000011   -3216127.75
 8.56999969   -3216723.5
 8.76000023   -3217319.
 8.94999981   -3217911.75
 9.14000034   -3218504.
 9.32999992   -3219097.5
 9.52000046   -3219688.75
 9.71000004   -3220282.75
 9.89999962   -3220874.75
 10.0900002   -3221465.25
 10.2799997   -3222055.5
 10.4700003   -3222642.5
 10.6599998   -3223227.
 10.8500004   -3223809.5
 11.04   -3224389.75
 11.2299995   -3224969.25
 11.4200001   -3225551.
 11.6099997   -3226135.
 11.8000002   -3226721.75
 11.9899998   -3227310.
 12.1800003   -3227900.
 12.3699999   -3228490.
 12.5600004   -3229076.5
 12.75   -3229658.5
 12.9399996   -3230238.
 13.1300001   -3230815.25
 13.3199997   -3231391.75
 13.5100002   -3231969.25
 13.6999998   -3232550.
 13.8900003   -3233134.
 14.0799999   -3233721.
 14.2700005   -3234311.25
 14.46   -3234899.5
 14.6499996   -3235483.5
 14.8400002   -3236061.5
 15.0299997   -3236633.
 15.2200003   -3237199.5
 15.4099998   -3237764.5
 15.6000004   -3238330.
 15.79   -3238899.25
 15.9799995   -3239474.25
 16.1700001   -3240055.25
 16.3600006   -3240639.25
 16.5499992   -3241223.25
 16.7399998   -3241806.5
 16.9300003   -3242382.25
 17.1200008   -3242953.25
 17.3099995   -3243519.5
 17.5   -3244089.5
 17.6900005   -3244662.5
 17.8799992   -3245241.75
 18.0699997   -3245827.5
 18.2600002   -3246418.5
 18.4500008   -3247014.75
 18.6399994   -3247607.5
 18.8299999   -3248198.25
 19.0200005   -3248783.75
 19.2099991   -3249362.5
 19.3999996   -3249939.5
 19.5900002   -3250515.
 19.7800007   -3251092.75
 19.9699993   -3251673.
 20.1599998   -3252257.
 20.3500004   -3252844.
 20.5400009   -3253431.25
 20.7299995   -3254017.5
 20.9200001   -3254601.
 21.1100006   -3255180.5
 21.2999992   -3255754.
 21.4899998   -3256325.5
 21.6800003   -3256894.
 21.8700008   -3257461.25
 22.0599995   -3258031.75
 22.25   -3258601.75
 22.4400005   -3259175.
 22.6299992   -3259748.5
 22.8199997   -3260325.75
 23.0100002   -3260901.5
 23.2000008   -3261478.25
 23.3899994   -3262056.5
 23.5799999   -3262635.25
 23.7700005   -3263218.25
 23.9599991   -3263803.5
 24.1499996   -3264392.75
 24.3400002   -3264984.
 24.5300007   -3265575.75
 24.7199993   -3266167.
 24.9099998   -3266757.5
 25.1000004   -3267341.5
 25.2900009   -3267924.25
 25.4799995   -3268501.25
 25.6700001   -3269074.25
 25.8600006   -3269644.5
 26.0499992   -3270210.75
 26.2399998   -3270775.5
 26.4300003   -3271339.75
 26.6200008   -3271903.
 26.8099995   -3272466.5
