 -30.   5220593.5
 -29.8099995   5221677.
 -29.6200008   5222774.
 -29.4300003   5223877.
 -29.2399998   5224980.5
 -29.0499992   5226079.
 -28.8600006   5227169.5
 -28.6700001   5228250.
 -28.4799995   5229327.
 -28.2900009   5230404.
 -28.1000004   5231484.5
 -27.9099998   5232577.5
 -27.7199993   5233682.
 -27.5300007   5234798.5
 -27.3400002   5235918.5
 -27.1499996   5237037.5
 -26.9599991   5238149.
 -26.7700005   5239248.
 -26.5799999   5240332.
 -26.3899994   5241404.5
 -26.2000008   5242470.5
 -26.0100002   5243538.
 -25.8199997   5244611.5
 -25.6299992   5245697.5
 -25.4400005   5246798.
 -25.25   5247908.
 -25.0599995   5249023.5
 -24.8700008   5250137.5
 -24.6800003   5251239.5
 -24.4899998   5252332.5
 -24.2999992   5253412.
 -24.1100006   5254483.
 -23.9200001   5255553.
 -23.7299995   5256626.5
 -23.5400009   5257711.5
 -23.3500004   5258810.
 -23.1599998   5259920.5
 -22.9699993   5261039.5
 -22.7800007   5262157.
 -22.5900002   5263267.
 -22.3999996   5264366.
 -22.2099991   5265450.
 -22.0200005   5266521.
 -21.8299999   5267586.
 -21.6399994   5268651.
 -21.4500008   5269723.
 -21.2600002   5270807.
 -21.0699997   5271900.5
 -20.8799992   5273004.
 -20.6900005   5274106.5
 -20.5   5275204.5
 -20.3099995   5276291.
 -20.1200008   5277363.
 -19.9300003   5278423.5
 -19.7399998   5279474.
 -19.5499992   5280522.5
 -19.3600006   5281573.
 -19.1700001   5282633.5
 -18.9799995   5283706.5
 -18.7900009   5284788.5
 -18.6000004   5285879.
 -18.4099998   5286968.
 -18.2199993   5288048.
 -18.0300007   5289115.
 -17.8400002   5290166.5
 -17.6499996   5291204.5
 -17.4599991   5292236.
 -17.2700005   5293269.
 -17.0799999   5294310.5
 -16.8899994   5295366.5
 -16.7000008   5296436.5
 -16.5100002   5297515.5
 -16.3199997   5298597.
 -16.1299992   5299673.5
 -15.9399996   5300735.5
 -15.75   5301778.5
 -15.5600004   5302806.5
 -15.3699999   5303823.
 -15.1800003   5304835.
 -14.9899998   5305855.
 -14.8000002   5306884.
 -14.6099997   5307927.
 -14.4200001   5308979.5
 -14.2299995   5310039.
 -14.04   5311094.
 -13.8500004   5312143.
 -13.6599998   5313176.5
 -13.4700003   5314195.5
 -13.2799997   5315204.
 -13.0900002   5316211.
 -12.8999996   5317224.5
 -12.71   5318249.5
 -12.5200005   5319290.
 -12.3299999   5320345.
 -12.1400003   5321412.5
 -11.9499998   5322483.5
 -11.7600002   5323549.
 -11.5699997   5324605.
 -11.3800001   5325646.
 -11.1899996   5326672.
 -11.   5327684.5
 -10.8100004   5328693.
 -10.6199999   5329706.
 -10.4300003   5330728.
 -10.2399998   5331761.
 -10.0500002   5332803.
 -9.85999966   5333849.5
 -9.67000008   5334891.
 -9.47999954   5335924.
 -9.28999996   5336939.5
 -9.10000038   5337940.
 -8.90999985   5338925.5
 -8.72000027   5339907.5
 -8.52999973   5340897.
 -8.34000015   5341900.
 -8.14999962   5342923.5
 -7.96000004   5343967.
 -7.76999998   5345024.
 -7.57999992   5346084.
 -7.38999987   5347140.
 -7.19999981   5348183.5
 -7.01000023   5349211.
 -6.82000017   5350226.5
 -6.63000011   5351234.5
 -6.44000006   5352241.
 -6.25   5353257.
 -6.05999994   5354286.5
 -5.86999989   5355333.
 -5.67999983   5356391.
 -5.48999977   5357456.5
 -5.30000019   5358518.5
 -5.11000013   5359569.
 -4.92000008   5360604.
 -4.73000002   5361622.
 -4.53999996   5362622.5
 -4.3499999   5363612.5
 -4.15999985   5364603.5
 -3.97000003   5365599.
 -3.77999997   5366609.
 -3.58999991   5367637.
 -3.4000001   5368675.5
 -3.21000004   5369718.
 -3.01999998   5370757.
 -2.82999992   5371784.5
 -2.6400001   5372798.5
 -2.45000005   5373797.5
 -2.25999999   5374785.5
 -2.06999993   5375771.
 -1.88   5376761.
 -1.69000006   5377765.5
 -1.5   5378785.5
 -1.30999994   5379822.5
 -1.12   5380869.
 -0.930000007   5381914.5
 -0.74000001   5382950.5
 -0.550000012   5383970.
 -0.360000014   5384971.5
 -0.170000002   5385955.5
 1.999999955E-2   5386929.5
 0.209999993   5387900.
 0.400000006   5388877.
 0.589999974   5389870.
 0.779999971   5390880.
 0.970000029   5391902.5
 1.15999997   5392930.
 1.35000002   5393953.5
 1.53999996   5394962.
 1.73000002   5395952.
 1.91999996   5396926.
 2.1099999   5397888.
 2.29999995   5398846.
 2.49000001   5399810.
 2.68000007   5400788.
 2.86999989   5401781.
 3.05999994   5402790.
 3.25   5403807.
 3.44000006   5404821.
 3.63000011   5405823.5
 3.81999993   5406808.
 4.01000023   5407776.
 4.19999981   5408734.
 4.38999987   5409688.5
 4.57999992   5410648.
 4.76999998   5411619.5
 4.96000004   5412610.
 5.1500001   5413616.5
 5.34000015   5414635.
 5.53000021   5415657.
 5.71999979   5416676.
 5.90999985   5417682.
 6.0999999   5418675.5
 6.28999996   5419656.
 6.48000002   5420629.5
 6.67000008   5421602.
 6.86000013   5422581.
 7.05000019   5423573.5
 7.23999977   5424581.
 7.42999983   5425599.5
 7.61999989   5426622.5
 7.80999994   5427642.
 8.   5428645.5
 8.18999958   5429630.5
 8.38000011   5430598.
 8.56999969   5431554.
 8.76000023   5432509.
 8.94999981   5433471.5
 9.14000034   5434451.
 9.32999992   5435447.5
 9.52000046   5436463.5
 9.71000004   5437487.
 9.89999962   5438514.5
 10.0900002   5439533.
 10.2799997   5440542.
 10.4700003   5441533.5
 10.6599998   5442517.
 10.8500004   5443496.
 11.04   5444476.5
 11.2299995   5445465.5
 11.4200001   5446466.5
 11.6099997   5447479.5
 11.8000002   5448499.5
 11.9899998   5449522.5
 12.1800003   5450540.5
 12.3699999   5451544.5
 12.5600004   5452533.
 12.75   5453504.5
 12.9399996   5454463.5
 13.1300001   5455416.
 13.3199997   5456371.
 13.5100002   5457333.
 13.6999998   5458309.
 13.8900003   5459299.5
 14.0799999   5460302.5
 14.2700005   5461306.5
 14.46   5462303.5
 14.6499996   5463281.5
 14.8400002   5464241.
 15.0299997   5465183.
 15.2200003   5466117.
 15.4099998   5467053.5
 15.6000004   5468002.
 15.79   5468971.5
 15.9799995   5469964.
 16.1700001   5470972.
 16.3600006   5471987.5
 16.5499992   5473001.5
 16.7399998   5474006.5
 16.9300003   5474998.5
 17.1200008   5475977.5
 17.3099995   5476951.5
 17.5   5477927.
 17.6900005   5478911.
 17.8799992   5479911.5
 18.0699997   5480930.
 18.2600002   5481965.
 18.4500008   5483014.5
 18.6399994   5484068.5
 18.8299999   5485114.5
 19.0200005   5486144.
 19.2099991   5487151.
 19.3999996   5488138.
 19.5900002   5489107.5
 19.7800007   5490071.
 19.9699993   5491038.5
 20.1599998   5492016.
 20.3500004   5493008.5
 20.5400009   5494009.
 20.7299995   5495010.5
 20.9200001   5496000.
 21.1100006   5496968.
 21.2999992   5497916.
 21.4899998   5498848.
 21.6800003   5499775.
 21.8700008   5500710.5
 22.0599995   5501661.
 22.25   5502632.
 22.4400005   5503619.5
 22.6299992   5504620.
 22.8199997   5505621.5
 23.0100002   5506614.
 23.2000008   5507598.
 23.3899994   5508565.5
 23.5799999   5509522.
 23.7700005   5510469.5
 23.9599991   5511416.5
 24.1499996   5512365.5
 24.3400002   5513324.
 24.5300007   5514291.5
 24.7199993   5515270.
 24.9099998   5516260.
 25.1000004   5517257.5
 25.2900009   5518252.
 25.4799995   5519237.5
 25.6700001   5520204.
 25.8600006   5521147.5
 26.0499992   5522076.
 26.2399998   5522992.5
 26.4300003   5523910.
 26.6200008   5524837.5
 26.8099995   5525787.
