 -30.   9219712.
 -29.8099995   9221585.
 -29.6200008   9223455.
 -29.4300003   9225329.
 -29.2399998   9227211.
 -29.0499992   9229092.
 -28.8600006   9230965.
 -28.6700001   9232831.
 -28.4799995   9234697.
 -28.2900009   9236571.
 -28.1000004   9238455.
 -27.9099998   9240340.
 -27.7199993   9242220.
 -27.5300007   9244089.
 -27.3400002   9245956.
 -27.1499996   9247830.
 -26.9599991   9249710.
 -26.7700005   9251593.
 -26.5799999   9253471.
 -26.3899994   9255339.
 -26.2000008   9257205.
 -26.0100002   9259076.
 -25.8199997   9260957.
 -25.6299992   9262841.
 -25.4400005   9264724.
 -25.25   9266597.
 -25.0599995   9268468.
 -24.8700008   9270343.
 -24.6800003   9272225.
 -24.4899998   9274113.
 -24.2999992   9275999.
 -24.1100006   9277877.
 -23.9200001   9279751.
 -23.7299995   9281628.
 -23.5400009   9283513.
 -23.3500004   9285404.
 -23.1599998   9287296.
 -22.9699993   9289178.
 -22.7800007   9291055.
 -22.5900002   9292932.
 -22.3999996   9294816.
 -22.2099991   9296705.
 -22.0200005   9298596.
 -21.8299999   9300480.
 -21.6399994   9302357.
 -21.4500008   9304234.
 -21.2600002   9306117.
 -21.0699997   9308008.
 -20.8799992   9309902.
 -20.6900005   9311789.
 -20.5   9313667.
 -20.3099995   9315541.
 -20.1200008   9317417.
 -19.9300003   9319299.
 -19.7399998   9321182.
 -19.5499992   9323062.
 -19.3600006   9324933.
 -19.1700001   9326801.
 -18.9799995   9328674.
 -18.7900009   9330558.
 -18.6000004   9332449.
 -18.4099998   9334341.
 -18.2199993   9336223.
 -18.0300007   9338102.
 -17.8400002   9339981.
 -17.6499996   9341869.
 -17.4599991   9343763.
 -17.2700005   9345651.
 -17.0799999   9347528.
 -16.8899994   9349394.
 -16.7000008   9351259.
 -16.5100002   9353134.
 -16.3199997   9355017.
 -16.1299992   9356902.
 -15.9399996   9358776.
 -15.75   9360639.
 -15.5600004   9362502.
 -15.3699999   9364374.
 -15.1800003   9366254.
 -14.9899998   9368138.
 -14.8000002   9370014.
 -14.6099997   9371883.
 -14.4200001   9373753.
 -14.2299995   9375635.
 -14.04   9377529.
 -13.8500004   9379430.
 -13.6599998   9381324.
 -13.4700003   9383207.
 -13.2799997   9385088.
 -13.0900002   9386974.
 -12.8999996   9388871.
 -12.71   9390771.
 -12.5200005   9392664.
 -12.3299999   9394547.
 -12.1400003   9396425.
 -11.9499998   9398313.
 -11.7600002   9400212.
 -11.5699997   9402117.
 -11.3800001   9404018.
 -11.1899996   9405905.
 -11.   9407786.
 -10.8100004   9409666.
 -10.6199999   9411554.
 -10.4300003   9413445.
 -10.2399998   9415330.
 -10.0500002   9417206.
 -9.85999966   9419073.
 -9.67000008   9420946.
 -9.47999954   9422832.
 -9.28999996   9424727.
 -9.10000038   9426623.
 -8.90999985   9428513.
 -8.72000027   9430398.
 -8.52999973   9432287.
 -8.34000015   9434188.
 -8.14999962   9436100.
 -7.96000004   9438011.
 -7.76999998   9439913.
 -7.57999992   9441807.
 -7.38999987   9443698.
 -7.19999981   9445596.
 -7.01000023   9447503.
 -6.82000017   9449408.
 -6.63000011   9451306.
 -6.44000006   9453197.
 -6.25   9455087.
 -6.05999994   9456987.
 -5.86999989   9458897.
 -5.67999983   9460810.
 -5.48999977   9462717.
 -5.30000019   9464613.
 -5.11000013   9466505.
 -4.92000008   9468402.
 -4.73000002   9470303.
 -4.53999996   9472208.
 -4.3499999   9474106.
 -4.15999985   9475995.
 -3.97000003   9477878.
 -3.77999997   9479766.
 -3.58999991   9481661.
 -3.4000001   9483559.
 -3.21000004   9485447.
 -3.01999998   9487327.
 -2.82999992   9489202.
 -2.6400001   9491085.
 -2.45000005   9492980.
 -2.25999999   9494889.
 -2.06999993   9496794.
 -1.88   9498694.
 -1.69000006   9500589.
 -1.5   9502489.
 -1.30999994   9504400.
 -1.12   9506316.
 -0.930000007   9508229.
 -0.74000001   9510129.
 -0.550000012   9512018.
 -0.360000014   9513907.
 -0.170000002   9515803.
 1.999999955E-2   9517706.
 0.209999993   9519610.
 0.400000006   9521502.
 0.589999974   9523387.
 0.779999971   9525279.
 0.970000029   9527185.
 1.15999997   9529106.
 1.35000002   9531026.
 1.53999996   9532939.
 1.73000002   9534840.
 1.91999996   9536743.
 2.1099999   9538656.
 2.29999995   9540580.
 2.49000001   9542504.
 2.68000007   9544417.
 2.86999989   9546321.
 3.05999994   9548221.
 3.25   9550129.
 3.44000006   9552047.
 3.63000011   9553964.
 3.81999993   9555870.
 4.01000023   9557765.
 4.19999981   9559652.
 4.38999987   9561542.
 4.57999992   9563438.
 4.76999998   9565333.
 4.96000004   9567219.
 5.1500001   9569098.
 5.34000015   9570972.
 5.53000021   9572855.
 5.71999979   9574748.
 5.90999985   9576644.
 6.0999999   9578534.
 6.28999996   9580419.
 6.48000002   9582303.
 6.67000008   9584194.
 6.86000013   9586099.
 7.05000019   9588012.
 7.23999977   9589923.
 7.42999983   9591830.
 7.61999989   9593737.
 7.80999994   9595644.
 8.   9597560.
 8.18999958   9599481.
 8.38000011   9601402.
 8.56999969   9603322.
 8.76000023   9605244.
 8.94999981   9607171.
 9.14000034   9609101.
 9.32999992   9611030.
 9.52000046   9612955.
 9.71000004   9614872.
 9.89999962   9616782.
 10.0900002   9618691.
 10.2799997   9620604.
 10.4700003   9622522.
 10.6599998   9624442.
 10.8500004   9626362.
 11.04   9628277.
 11.2299995   9630190.
 11.4200001   9632103.
 11.6099997   9634020.
 11.8000002   9635942.
 11.9899998   9637864.
 12.1800003   9639787.
 12.3699999   9641708.
 12.5600004   9643630.
 12.75   9645558.
 12.9399996   9647485.
 13.1300001   9649411.
 13.3199997   9651327.
 13.5100002   9653232.
 13.6999998   9655132.
 13.8900003   9657036.
 14.0799999   9658941.
 14.2700005   9660848.
 14.46   9662746.
 14.6499996   9664635.
 14.8400002   9666519.
 15.0299997   9668408.
 15.2200003   9670305.
 15.4099998   9672209.
 15.6000004   9674109.
 15.79   9676002.
 15.9799995   9677893.
 16.1700001   9679794.
 16.3600006   9681708.
 16.5499992   9683630.
 16.7399998   9685550.
 16.9300003   9687460.
 17.1200008   9689364.
 17.3099995   9691272.
 17.5   9693190.
 17.6900005   9695112.
 17.8799992   9697027.
 18.0699997   9698930.
 18.2600002   9700826.
 18.4500008   9702730.
 18.6399994   9704645.
 18.8299999   9706571.
 19.0200005   9708490.
 19.2099991   9710399.
 19.3999996   9712305.
 19.5900002   9714220.
 19.7800007   9716150.
 19.9699993   9718089.
 20.1599998   9720023.
 20.3500004   9721950.
 20.5400009   9723872.
 20.7299995   9725803.
 20.9200001   9727747.
 21.1100006   9729694.
 21.2999992   9731631.
 21.4899998   9733552.
 21.6800003   9735463.
 21.8700008   9737375.
 22.0599995   9739298.
 22.25   9741224.
 22.4400005   9743145.
 22.6299992   9745057.
 22.8199997   9746964.
 23.0100002   9748881.
 23.2000008   9750811.
 23.3899994   9752746.
 23.5799999   9754676.
 23.7700005   9756594.
 23.9599991   9758505.
 24.1499996   9760422.
 24.3400002   9762349.
 24.5300007   9764284.
 24.7199993   9766213.
 24.9099998   9768137.
 25.1000004   9770059.
 25.2900009   9771989.
 25.4799995   9773928.
 25.6700001   9775873.
 25.8600006   9777817.
 26.0499992   9779755.
 26.2399998   9781695.
 26.4300003   9783640.
 26.6200008   9785590.
 26.8099995   9787536.
