 -30.   -2878469.5
 -29.8099995   -2879059.
 -29.6200008   -2879649.75
 -29.4300003   -2880241.
 -29.2399998   -2880832.
 -29.0499992   -2881422.75
 -28.8600006   -2882014.
 -28.6700001   -2882604.75
 -28.4799995   -2883196.25
 -28.2900009   -2883790.25
 -28.1000004   -2884382.
 -27.9099998   -2884973.75
 -27.7199993   -2885564.75
 -27.5300007   -2886154.5
 -27.3400002   -2886744.
 -27.1499996   -2887334.25
 -26.9599991   -2887924.25
 -26.7700005   -2888515.5
 -26.5799999   -2889108.5
 -26.3899994   -2889700.5
 -26.2000008   -2890292.25
 -26.0100002   -2890882.5
 -25.8199997   -2891472.75
 -25.6299992   -2892062.5
 -25.4400005   -2892652.25
 -25.25   -2893243.5
 -25.0599995   -2893835.5
 -24.8700008   -2894427.5
 -24.6800003   -2895018.75
 -24.4899998   -2895610.75
 -24.2999992   -2896200.25
 -24.1100006   -2896787.75
 -23.9200001   -2897375.75
 -23.7299995   -2897961.5
 -23.5400009   -2898547.5
 -23.3500004   -2899131.75
 -23.1599998   -2899716.25
 -22.9699993   -2900301.5
 -22.7800007   -2900888.75
 -22.5900002   -2901476.75
 -22.3999996   -2902066.25
 -22.2099991   -2902655.75
 -22.0200005   -2903247.75
 -21.8299999   -2903840.
 -21.6399994   -2904435.25
 -21.4500008   -2905032.25
 -21.2600002   -2905633.
 -21.0699997   -2906237.25
 -20.8799992   -2906841.25
 -20.6900005   -2907449.
 -20.5   -2908056.
 -20.3099995   -2908663.25
 -20.1200008   -2909271.25
 -19.9300003   -2909879.
 -19.7399998   -2910486.
 -19.5499992   -2911096.5
 -19.3600006   -2911709.
 -19.1700001   -2912325.
 -18.9799995   -2912943.
 -18.7900009   -2913561.75
 -18.6000004   -2914180.5
 -18.4099998   -2914798.75
 -18.2199993   -2915415.5
 -18.0300007   -2916033.25
 -17.8400002   -2916648.5
 -17.6499996   -2917262.5
 -17.4599991   -2917875.
 -17.2700005   -2918484.5
 -17.0799999   -2919094.
 -16.8899994   -2919699.75
 -16.7000008   -2920303.25
 -16.5100002   -2920904.
 -16.3199997   -2921501.
 -16.1299992   -2922095.25
 -15.9399996   -2922685.25
 -15.75   -2923274.
 -15.5600004   -2923862.5
 -15.3699999   -2924451.75
 -15.1800003   -2925040.75
 -14.9899998   -2925628.75
 -14.8000002   -2926215.25
 -14.6099997   -2926797.
 -14.4200001   -2927375.5
 -14.2299995   -2927949.5
 -14.04   -2928517.5
 -13.8500004   -2929086.25
 -13.6599998   -2929652.75
 -13.4700003   -2930221.75
 -13.2799997   -2930793.
 -13.0900002   -2931366.25
 -12.8999996   -2931941.75
 -12.71   -2932513.5
 -12.5200005   -2933082.5
 -12.3299999   -2933646.75
 -12.1400003   -2934211.5
 -11.9499998   -2934776.5
 -11.7600002   -2935344.75
 -11.5699997   -2935917.5
 -11.3800001   -2936495.5
 -11.1899996   -2937077.75
 -11.   -2937662.5
 -10.8100004   -2938247.75
 -10.6199999   -2938831.
 -10.4300003   -2939412.75
 -10.2399998   -2939993.25
 -10.0500002   -2940575.5
 -9.85999966   -2941159.25
 -9.67000008   -2941748.5
 -9.47999954   -2942337.5
 -9.28999996   -2942931.25
 -9.10000038   -2943525.75
 -8.90999985   -2944121.25
 -8.72000027   -2944714.75
 -8.52999973   -2945311.5
 -8.34000015   -2945908.25
 -8.14999962   -2946506.25
 -7.96000004   -2947106.75
 -7.76999998   -2947709.25
 -7.57999992   -2948312.
 -7.38999987   -2948914.
 -7.19999981   -2949516.
 -7.01000023   -2950119.25
 -6.82000017   -2950723.
 -6.63000011   -2951329.25
 -6.44000006   -2951934.5
 -6.25   -2952542.25
 -6.05999994   -2953150.75
 -5.86999989   -2953759.25
 -5.67999983   -2954367.25
 -5.48999977   -2954978.75
 -5.30000019   -2955591.75
 -5.11000013   -2956207.25
 -4.92000008   -2956825.25
 -4.73000002   -2957445.
 -4.53999996   -2958064.75
 -4.3499999   -2958685.5
 -4.15999985   -2959302.75
 -3.97000003   -2959918.25
 -3.77999997   -2960531.5
 -3.58999991   -2961140.25
 -3.4000001   -2961747.75
 -3.21000004   -2962354.25
 -3.01999998   -2962960.25
 -2.82999992   -2963565.
 -2.6400001   -2964170.25
 -2.45000005   -2964776.
 -2.25999999   -2965379.25
 -2.06999993   -2965982.5
 -1.88   -2966587.75
 -1.69000006   -2967192.25
 -1.5   -2967799.75
 -1.30999994   -2968409.25
 -1.12   -2969020.25
 -0.930000007   -2969634.
 -0.74000001   -2970246.5
 -0.550000012   -2970858.25
 -0.360000014   -2971467.5
 -0.170000002   -2972076.5
 1.999999955E-2   -2972682.5
 0.209999993   -2973286.
 0.400000006   -2973890.75
 0.589999974   -2974494.25
 0.779999971   -2975095.75
 0.970000029   -2975698.
 1.15999997   -2976299.25
 1.35000002   -2976899.5
 1.53999996   -2977503.25
 1.73000002   -2978110.5
 1.91999996   -2978719.75
 2.1099999   -2979332.5
 2.29999995   -2979945.75
 2.49000001   -2980559.
 2.68000007   -2981169.75
 2.86999989   -2981780.5
 3.05999994   -2982392.25
 3.25   -2983005.5
 3.44000006   -2983622.25
 3.63000011   -2984242.25
 3.81999993   -2984862.
 4.01000023   -2985482.25
 4.19999981   -2986100.75
 4.38999987   -2986721.
 4.57999992   -2987343.
 4.76999998   -2987969.75
 4.96000004   -2988601.75
 5.1500001   -2989236.75
 5.34000015   -2989873.25
 5.53000021   -2990508.75
 5.71999979   -2991141.25
 5.90999985   -2991768.5
 6.0999999   -2992393.75
 6.28999996   -2993018.75
 6.48000002   -2993643.25
 6.67000008   -2994266.25
 6.86000013   -2994888.5
 7.05000019   -2995506.75
 7.23999977   -2996121.5
 7.42999983   -2996731.
 7.61999989   -2997336.5
 7.80999994   -2997941.25
 8.   -2998546.25
 8.18999958   -2999154.5
 8.38000011   -2999764.5
 8.56999969   -3000375.
 8.76000023   -3000985.
 8.94999981   -3001592.75
 9.14000034   -3002196.75
 9.32999992   -3002805.25
 9.52000046   -3003414.25
 9.71000004   -3004027.5
 9.89999962   -3004642.5
 10.0900002   -3005256.75
 10.2799997   -3005869.5
 10.4700003   -3006477.
 10.6599998   -3007079.25
 10.8500004   -3007680.5
 11.04   -3008283.
 11.2299995   -3008887.
 11.4200001   -3009499.
 11.6099997   -3010117.
 11.8000002   -3010738.5
 11.9899998   -3011360.75
 12.1800003   -3011981.75
 12.3699999   -3012599.75
 12.5600004   -3013213.25
 12.75   -3013828.5
 12.9399996   -3014444.75
 13.1300001   -3015062.
 13.3199997   -3015681.75
 13.5100002   -3016303.75
 13.6999998   -3016924.25
 13.8900003   -3017546.
 14.0799999   -3018167.5
 14.2700005   -3018792.
 14.46   -3019422.
 14.6499996   -3020058.
 14.8400002   -3020697.75
 15.0299997   -3021340.25
 15.2200003   -3021982.75
 15.4099998   -3022620.25
 15.6000004   -3023255.5
 15.79   -3023888.5
 15.9799995   -3024523.5
 16.1700001   -3025160.5
 16.3600006   -3025801.25
 16.5499992   -3026443.
 16.7399998   -3027083.75
 16.9300003   -3027722.
 17.1200008   -3028355.
 17.3099995   -3028982.75
 17.5   -3029606.25
 17.6900005   -3030229.25
 17.8799992   -3030853.75
 18.0699997   -3031481.
 18.2600002   -3032107.25
 18.4500008   -3032730.5
 18.6399994   -3033349.25
 18.8299999   -3033966.
 19.0200005   -3034580.
 19.2099991   -3035198.
 19.3999996   -3035819.
 19.5900002   -3036448.5
 19.7800007   -3037082.25
 19.9699993   -3037713.75
 20.1599998   -3038340.5
 20.3500004   -3038959.5
 20.5400009   -3039572.75
 20.7299995   -3040183.
 20.9200001   -3040794.
 21.1100006   -3041411.25
 21.2999992   -3042030.25
 21.4899998   -3042652.
 21.6800003   -3043274.5
 21.8700008   -3043889.5
 22.0599995   -3044498.25
 22.25   -3045104.25
 22.4400005   -3045709.
 22.6299992   -3046315.5
 22.8199997   -3046924.75
 23.0100002   -3047537.75
 23.2000008   -3048151.75
 23.3899994   -3048761.75
 23.5799999   -3049367.75
 23.7700005   -3049966.5
 23.9599991   -3050564.
 24.1499996   -3051163.
 24.3400002   -3051764.25
 24.5300007   -3052369.5
 24.7199993   -3052978.
 24.9099998   -3053585.5
 25.1000004   -3054185.75
 25.2900009   -3054778.
 25.4799995   -3055363.75
 25.6700001   -3055943.25
 25.8600006   -3056525.75
 26.0499992   -3057107.
 26.2399998   -3057692.75
 26.4300003   -3058278.
 26.6200008   -3058859.25
 26.8099995   -3059436.25
