 -30.   -6073155.
 -29.8099995   -6074405.
 -29.6200008   -6075660.
 -29.4300003   -6076920.
 -29.2399998   -6078178.5
 -29.0499992   -6079432.
 -28.8600006   -6080679.5
 -28.6700001   -6081921.5
 -28.4799995   -6083159.5
 -28.2900009   -6084396.
 -28.1000004   -6085636.
 -27.9099998   -6086882.5
 -27.7199993   -6088136.5
 -27.5300007   -6089398.
 -27.3400002   -6090658.5
 -27.1499996   -6091917.
 -26.9599991   -6093169.
 -26.7700005   -6094411.5
 -26.5799999   -6095645.5
 -26.3899994   -6096873.
 -26.2000008   -6098098.
 -26.0100002   -6099325.
 -25.8199997   -6100557.5
 -25.6299992   -6101798.
 -25.4400005   -6103044.5
 -25.25   -6104293.5
 -25.0599995   -6105541.
 -24.8700008   -6106783.
 -24.6800003   -6108015.5
 -24.4899998   -6109239.5
 -24.2999992   -6110455.
 -24.1100006   -6111668.5
 -23.9200001   -6112883.5
 -23.7299995   -6114106.5
 -23.5400009   -6115338.
 -23.3500004   -6116578.5
 -23.1599998   -6117821.5
 -22.9699993   -6119067.5
 -22.7800007   -6120307.5
 -22.5900002   -6121540.
 -22.3999996   -6122762.5
 -22.2099991   -6123978.
 -22.0200005   -6125188.
 -21.8299999   -6126401.
 -21.6399994   -6127620.5
 -21.4500008   -6128851.
 -21.2600002   -6130088.
 -21.0699997   -6131333.5
 -20.8799992   -6132577.
 -20.6900005   -6133815.5
 -20.5   -6135044.5
 -20.3099995   -6136263.5
 -20.1200008   -6137475.5
 -19.9300003   -6138684.
 -19.7399998   -6139896.5
 -19.5499992   -6141119.
 -19.3600006   -6142352.
 -19.1700001   -6143596.
 -18.9799995   -6144846.
 -18.7900009   -6146094.5
 -18.6000004   -6147339.
 -18.4099998   -6148571.5
 -18.2199993   -6149793.
 -18.0300007   -6151005.
 -17.8400002   -6152212.5
 -17.6499996   -6153421.5
 -17.4599991   -6154638.5
 -17.2700005   -6155863.5
 -17.0799999   -6157098.
 -16.8899994   -6158339.
 -16.7000008   -6159580.5
 -16.5100002   -6160819.5
 -16.3199997   -6162049.
 -16.1299992   -6163268.5
 -15.9399996   -6164479.
 -15.75   -6165684.5
 -15.5600004   -6166891.5
 -15.3699999   -6168102.
 -15.1800003   -6169321.
 -14.9899998   -6170547.5
 -14.8000002   -6171783.
 -14.6099997   -6173018.5
 -14.4200001   -6174251.5
 -14.2299995   -6175475.5
 -14.04   -6176689.5
 -13.8500004   -6177894.5
 -13.6599998   -6179089.5
 -13.4700003   -6180283.5
 -13.2799997   -6181481.
 -13.0900002   -6182685.
 -12.8999996   -6183896.5
 -12.71   -6185114.5
 -12.5200005   -6186334.
 -12.3299999   -6187548.
 -12.1400003   -6188756.5
 -11.9499998   -6189955.
 -11.7600002   -6191144.5
 -11.5699997   -6192330.5
 -11.3800001   -6193514.5
 -11.1899996   -6194705.
 -11.   -6195903.
 -10.8100004   -6197107.
 -10.6199999   -6198316.5
 -10.4300003   -6199529.5
 -10.2399998   -6200737.
 -10.0500002   -6201938.
 -9.85999966   -6203131.
 -9.67000008   -6204314.5
 -9.47999954   -6205496.
 -9.28999996   -6206676.5
 -9.10000038   -6207857.
 -8.90999985   -6209042.5
 -8.72000027   -6210233.
 -8.52999973   -6211425.
 -8.34000015   -6212616.
 -8.14999962   -6213802.5
 -7.96000004   -6214983.5
 -7.76999998   -6216154.5
 -7.57999992   -6217318.5
 -7.38999987   -6218480.5
 -7.19999981   -6219641.
 -7.01000023   -6220803.5
 -6.82000017   -6221971.5
 -6.63000011   -6223148.
 -6.44000006   -6224330.
 -6.25   -6225517.
 -6.05999994   -6226704.5
 -5.86999989   -6227886.
 -5.67999983   -6229063.5
 -5.48999977   -6230235.5
 -5.30000019   -6231406.5
 -5.11000013   -6232576.5
 -4.92000008   -6233750.
 -4.73000002   -6234931.
 -4.53999996   -6236118.5
 -4.3499999   -6237310.
 -4.15999985   -6238502.
 -3.97000003   -6239693.
 -3.77999997   -6240880.
 -3.58999991   -6242059.
 -3.4000001   -6243232.5
 -3.21000004   -6244400.5
 -3.01999998   -6245567.5
 -2.82999992   -6246733.5
 -2.6400001   -6247902.5
 -2.45000005   -6249075.5
 -2.25999999   -6250253.
 -2.06999993   -6251432.5
 -1.88   -6252609.
 -1.69000006   -6253782.5
 -1.5   -6254954.5
 -1.30999994   -6256122.5
 -1.12   -6257289.
 -0.930000007   -6258457.
 -0.74000001   -6259628.5
 -0.550000012   -6260803.5
 -0.360000014   -6261979.
 -0.170000002   -6263158.
 1.999999955E-2   -6264334.
 0.209999993   -6265509.5
 0.400000006   -6266681.5
 0.589999974   -6267851.
 0.779999971   -6269018.
 0.970000029   -6270184.
 1.15999997   -6271351.5
 1.35000002   -6272519.
 1.53999996   -6273690.
 1.73000002   -6274862.5
 1.91999996   -6276039.5
 2.1099999   -6277215.
 2.29999995   -6278391.5
 2.49000001   -6279566.5
 2.68000007   -6280738.5
 2.86999989   -6281903.5
 3.05999994   -6283064.
 3.25   -6284221.5
 3.44000006   -6285376.5
 3.63000011   -6286530.
 3.81999993   -6287686.
 4.01000023   -6288847.
 4.19999981   -6290007.
 4.38999987   -6291171.5
 4.57999992   -6292336.
 4.76999998   -6293498.
 4.96000004   -6294663.5
 5.1500001   -6295829.
 5.34000015   -6296996.5
 5.53000021   -6298162.5
 5.71999979   -6299329.5
 5.90999985   -6300495.5
 6.0999999   -6301657.5
 6.28999996   -6302820.5
 6.48000002   -6303982.5
 6.67000008   -6305144.
 6.86000013   -6306305.5
 7.05000019   -6307469.5
 7.23999977   -6308634.
 7.42999983   -6309797.
 7.61999989   -6310960.5
 7.80999994   -6312120.5
 8.   -6313278.
 8.18999958   -6314436.
 8.38000011   -6315591.5
 8.56999969   -6316749.
 8.76000023   -6317908.5
 8.94999981   -6319067.
 9.14000034   -6320225.
 9.32999992   -6321380.
 9.52000046   -6322536.
 9.71000004   -6323689.5
 9.89999962   -6324846.
 10.0900002   -6326005.
 10.2799997   -6327167.
 10.4700003   -6328332.
 10.6599998   -6329501.
 10.8500004   -6330671.
 11.04   -6331842.
 11.2299995   -6333014.
 11.4200001   -6334183.5
 11.6099997   -6335350.
 11.8000002   -6336514.
 11.9899998   -6337676.
 12.1800003   -6338834.5
 12.3699999   -6339993.5
 12.5600004   -6341153.
 12.75   -6342312.5
 12.9399996   -6343473.5
 13.1300001   -6344635.5
 13.3199997   -6345799.
 13.5100002   -6346958.5
 13.6999998   -6348115.
 13.8900003   -6349271.
 14.0799999   -6350422.
 14.2700005   -6351572.
 14.46   -6352725.5
 14.6499996   -6353879.5
 14.8400002   -6355035.5
 15.0299997   -6356193.
 15.2200003   -6357350.
 15.4099998   -6358504.
 15.6000004   -6359658.5
 15.79   -6360807.5
 15.9799995   -6361950.5
 16.1700001   -6363093.
 16.3600006   -6364235.5
 16.5499992   -6365380.
 16.7399998   -6366527.
 16.9300003   -6367675.5
 17.1200008   -6368827.
 17.3099995   -6369981.
 17.5   -6371136.
 17.6900005   -6372292.5
 17.8799992   -6373447.
 18.0699997   -6374605.5
 18.2600002   -6375762.5
 18.4500008   -6376917.
 18.6399994   -6378072.5
 18.8299999   -6379221.5
 19.0200005   -6380368.
 19.2099991   -6381512.
 19.3999996   -6382652.5
 19.5900002   -6383789.
 19.7800007   -6384926.
 19.9699993   -6386058.5
 20.1599998   -6387190.5
 20.3500004   -6388324.
 20.5400009   -6389460.5
 20.7299995   -6390601.5
 20.9200001   -6391747.
 21.1100006   -6392890.5
 21.2999992   -6394035.
 21.4899998   -6395177.5
 21.6800003   -6396313.5
 21.8700008   -6397445.
 22.0599995   -6398573.
 22.25   -6399701.
 22.4400005   -6400828.
 22.6299992   -6401961.
 22.8199997   -6403099.
 23.0100002   -6404240.5
 23.2000008   -6405380.
 23.3899994   -6406514.
 23.5799999   -6407645.
 23.7700005   -6408768.5
 23.9599991   -6409890.
 24.1499996   -6411012.
 24.3400002   -6412137.5
 24.5300007   -6413268.
 24.7199993   -6414405.
 24.9099998   -6415546.
 25.1000004   -6416688.
 25.2900009   -6417833.5
 25.4799995   -6418975.5
 25.6700001   -6420112.5
 25.8600006   -6421247.5
 26.0499992   -6422379.
 26.2399998   -6423506.
 26.4300003   -6424636.
 26.6200008   -6425768.5
 26.8099995   -6426902.5
