 -30.   8754992.
 -29.8099995   8756773.
 -29.6200008   8758546.
 -29.4300003   8760316.
 -29.2399998   8762088.
 -29.0499992   8763864.
 -28.8600006   8765645.
 -28.6700001   8767430.
 -28.4799995   8769216.
 -28.2900009   8771002.
 -28.1000004   8772784.
 -27.9099998   8774559.
 -27.7199993   8776328.
 -27.5300007   8778091.
 -27.3400002   8779852.
 -27.1499996   8781618.
 -26.9599991   8783388.
 -26.7700005   8785169.
 -26.5799999   8786954.
 -26.3899994   8788744.
 -26.2000008   8790532.
 -26.0100002   8792316.
 -25.8199997   8794091.
 -25.6299992   8795858.
 -25.4400005   8797621.
 -25.25   8799382.
 -25.0599995   8801146.
 -24.8700008   8802913.
 -24.6800003   8804684.
 -24.4899998   8806457.
 -24.2999992   8808233.
 -24.1100006   8810008.
 -23.9200001   8811781.
 -23.7299995   8813551.
 -23.5400009   8815318.
 -23.3500004   8817085.
 -23.1599998   8818850.
 -22.9699993   8820616.
 -22.7800007   8822385.
 -22.5900002   8824158.
 -22.3999996   8825932.
 -22.2099991   8827709.
 -22.0200005   8829489.
 -21.8299999   8831272.
 -21.6399994   8833051.
 -21.4500008   8834828.
 -21.2600002   8836602.
 -21.0699997   8838372.
 -20.8799992   8840139.
 -20.6900005   8841906.
 -20.5   8843676.
 -20.3099995   8845447.
 -20.1200008   8847221.
 -19.9300003   8848998.
 -19.7399998   8850781.
 -19.5499992   8852564.
 -19.3600006   8854346.
 -19.1700001   8856128.
 -18.9799995   8857908.
 -18.7900009   8859686.
 -18.6000004   8861460.
 -18.4099998   8863235.
 -18.2199993   8865010.
 -18.0300007   8866787.
 -17.8400002   8868568.
 -17.6499996   8870349.
 -17.4599991   8872133.
 -17.2700005   8873919.
 -17.0799999   8875702.
 -16.8899994   8877479.
 -16.7000008   8879252.
 -16.5100002   8881020.
 -16.3199997   8882784.
 -16.1299992   8884546.
 -15.9399996   8886309.
 -15.75   8888074.
 -15.5600004   8889842.
 -15.3699999   8891608.
 -15.1800003   8893371.
 -14.9899998   8895128.
 -14.8000002   8896878.
 -14.6099997   8898620.
 -14.4200001   8900357.
 -14.2299995   8902094.
 -14.04   8903830.
 -13.8500004   8905577.
 -13.6599998   8907328.
 -13.4700003   8909086.
 -13.2799997   8910848.
 -13.0900002   8912609.
 -12.8999996   8914365.
 -12.71   8916116.
 -12.5200005   8917858.
 -12.3299999   8919594.
 -12.1400003   8921329.
 -11.9499998   8923067.
 -11.7600002   8924813.
 -11.5699997   8926569.
 -11.3800001   8928332.
 -11.1899996   8930102.
 -11.   8931870.
 -10.8100004   8933633.
 -10.6199999   8935385.
 -10.4300003   8937126.
 -10.2399998   8938858.
 -10.0500002   8940581.
 -9.85999966   8942304.
 -9.67000008   8944031.
 -9.47999954   8945768.
 -9.28999996   8947513.
 -9.10000038   8949266.
 -8.90999985   8951020.
 -8.72000027   8952774.
 -8.52999973   8954518.
 -8.34000015   8956255.
 -8.14999962   8957982.
 -7.96000004   8959705.
 -7.76999998   8961425.
 -7.57999992   8963154.
 -7.38999987   8964891.
 -7.19999981   8966640.
 -7.01000023   8968396.
 -6.82000017   8970155.
 -6.63000011   8971908.
 -6.44000006   8973650.
 -6.25   8975377.
 -6.05999994   8977087.
 -5.86999989   8978788.
 -5.67999983   8980484.
 -5.48999977   8982182.
 -5.30000019   8983887.
 -5.11000013   8985606.
 -4.92000008   8987331.
 -4.73000002   8989058.
 -4.53999996   8990784.
 -4.3499999   8992496.
 -4.15999985   8994194.
 -3.97000003   8995881.
 -3.77999997   8997560.
 -3.58999991   8999240.
 -3.4000001   9000931.
 -3.21000004   9002638.
 -3.01999998   9004364.
 -2.82999992   9006104.
 -2.6400001   9007848.
 -2.45000005   9009588.
 -2.25999999   9011313.
 -2.06999993   9013017.
 -1.88   9014702.
 -1.69000006   9016374.
 -1.5   9018039.
 -1.30999994   9019713.
 -1.12   9021401.
 -0.930000007   9023106.
 -0.74000001   9024824.
 -0.550000012   9026551.
 -0.360000014   9028277.
 -0.170000002   9029990.
 1.999999955E-2   9031686.
 0.209999993   9033365.
 0.400000006   9035030.
 0.589999974   9036692.
 0.779999971   9038364.
 0.970000029   9040052.
 1.15999997   9041762.
 1.35000002   9043489.
 1.53999996   9045226.
 1.73000002   9046958.
 1.91999996   9048677.
 2.1099999   9050373.
 2.29999995   9052049.
 2.49000001   9053709.
 2.68000007   9055367.
 2.86999989   9057033.
 3.05999994   9058717.
 3.25   9060422.
 3.44000006   9062147.
 3.63000011   9063881.
 3.81999993   9065616.
 4.01000023   9067338.
 4.19999981   9069044.
 4.38999987   9070733.
 4.57999992   9072414.
 4.76999998   9074090.
 4.96000004   9075774.
 5.1500001   9077469.
 5.34000015   9079179.
 5.53000021   9080897.
 5.71999979   9082619.
 5.90999985   9084337.
 6.0999999   9086046.
 6.28999996   9087738.
 6.48000002   9089418.
 6.67000008   9091088.
 6.86000013   9092755.
 7.05000019   9094422.
 7.23999977   9096100.
 7.42999983   9097787.
 7.61999989   9099485.
 7.80999994   9101189.
 8.   9102892.
 8.18999958   9104591.
 8.38000011   9106280.
 8.56999969   9107957.
 8.76000023   9109627.
 8.94999981   9111294.
 9.14000034   9112966.
 9.32999992   9114647.
 9.52000046   9116341.
 9.71000004   9118048.
 9.89999962   9119760.
 10.0900002   9121472.
 10.2799997   9123176.
 10.4700003   9124866.
 10.6599998   9126552.
 10.8500004   9128228.
 11.04   9129905.
 11.2299995   9131587.
 11.4200001   9133276.
 11.6099997   9134976.
 11.8000002   9136678.
 11.9899998   9138381.
 12.1800003   9140077.
 12.3699999   9141763.
 12.5600004   9143436.
 12.75   9145101.
 12.9399996   9146758.
 13.1300001   9148413.
 13.3199997   9150073.
 13.5100002   9151738.
 13.6999998   9153412.
 13.8900003   9155092.
 14.0799999   9156776.
 14.2700005   9158462.
 14.46   9160144.
 14.6499996   9161815.
 14.8400002   9163475.
 15.0299997   9165126.
 15.2200003   9166769.
 15.4099998   9168411.
 15.6000004   9170061.
 15.79   9171725.
 15.9799995   9173400.
 16.1700001   9175083.
 16.3600006   9176767.
 16.5499992   9178446.
 16.7399998   9180115.
 16.9300003   9181773.
 17.1200008   9183422.
 17.3099995   9185069.
 17.5   9186718.
 17.6900005   9188371.
 17.8799992   9190031.
 18.0699997   9191698.
 18.2600002   9193366.
 18.4500008   9195040.
 18.6399994   9196708.
 18.8299999   9198374.
 19.0200005   9200037.
 19.2099991   9201694.
 19.3999996   9203346.
 19.5900002   9204996.
 19.7800007   9206645.
 19.9699993   9208295.
 20.1599998   9209950.
 20.3500004   9211609.
 20.5400009   9213275.
 20.7299995   9214942.
 20.9200001   9216611.
 21.1100006   9218274.
 21.2999992   9219932.
 21.4899998   9221583.
 21.6800003   9223229.
 21.8700008   9224871.
 22.0599995   9226513.
 22.25   9228163.
 22.4400005   9229817.
 22.6299992   9231477.
 22.8199997   9233140.
 23.0100002   9234802.
 23.2000008   9236462.
 23.3899994   9238119.
 23.5799999   9239769.
 23.7700005   9241416.
 23.9599991   9243062.
 24.1499996   9244705.
 24.3400002   9246352.
 24.5300007   9248002.
 24.7199993   9249652.
 24.9099998   9251300.
 25.1000004   9252946.
 25.2900009   9254592.
 25.4799995   9256231.
 25.6700001   9257868.
 25.8600006   9259504.
 26.0499992   9261138.
 26.2399998   9262773.
 26.4300003   9264409.
 26.6200008   9266049.
 26.8099995   9267688.
