 -30.   -7017955.
 -29.8099995   -7019330.5
 -29.6200008   -7020691.
 -29.4300003   -7022080.
 -29.2399998   -7023507.
 -29.0499992   -7024938.
 -28.8600006   -7026330.
 -28.6700001   -7027682.
 -28.4799995   -7029024.
 -28.2900009   -7030401.5
 -28.1000004   -7031824.
 -27.9099998   -7033262.5
 -27.7199993   -7034665.5
 -27.5300007   -7036022.
 -27.3400002   -7037358.5
 -27.1499996   -7038724.
 -26.9599991   -7040137.5
 -26.7700005   -7041571.5
 -26.5799999   -7042978.5
 -26.3899994   -7044339.
 -26.2000008   -7045677.
 -26.0100002   -7047037.5
 -25.8199997   -7048444.
 -25.6299992   -7049876.
 -25.4400005   -7051287.5
 -25.25   -7052656.5
 -25.0599995   -7054001.5
 -24.8700008   -7055367.5
 -24.6800003   -7056778.5
 -24.4899998   -7058223.
 -24.2999992   -7059654.5
 -24.1100006   -7061046.5
 -23.9200001   -7062409.
 -23.7299995   -7063780.
 -23.5400009   -7065189.
 -23.3500004   -7066629.5
 -23.1599998   -7068066.
 -22.9699993   -7069468.
 -22.7800007   -7070840.
 -22.5900002   -7072218.5
 -22.3999996   -7073636.
 -22.2099991   -7075089.5
 -22.0200005   -7076547.5
 -21.8299999   -7077975.
 -21.6399994   -7079369.
 -21.4500008   -7080760.
 -21.2600002   -7082179.5
 -21.0699997   -7083636.
 -20.8799992   -7085099.
 -20.6900005   -7086536.5
 -20.5   -7087940.
 -20.3099995   -7089339.
 -20.1200008   -7090761.5
 -19.9300003   -7092216.
 -19.7399998   -7093683.
 -19.5499992   -7095127.5
 -19.3600006   -7096536.
 -19.1700001   -7097931.5
 -18.9799995   -7099348.
 -18.7900009   -7100796.5
 -18.6000004   -7102259.5
 -18.4099998   -7103707.
 -18.2199993   -7105122.5
 -18.0300007   -7106524.5
 -17.8400002   -7107940.
 -17.6499996   -7109388.
 -17.4599991   -7110850.5
 -17.2700005   -7112299.5
 -17.0799999   -7113714.
 -16.8899994   -7115106.5
 -16.7000008   -7116507.
 -16.5100002   -7117937.5
 -16.3199997   -7119385.
 -16.1299992   -7120825.5
 -15.9399996   -7122239.5
 -15.75   -7123633.5
 -15.5600004   -7125032.5
 -15.3699999   -7126455.
 -15.1800003   -7127895.
 -14.9899998   -7129332.5
 -14.8000002   -7130744.5
 -14.6099997   -7132131.
 -14.4200001   -7133518.
 -14.2299995   -7134926.
 -14.04   -7136357.
 -13.8500004   -7137791.5
 -13.6599998   -7139206.5
 -13.4700003   -7140601.5
 -13.2799997   -7141991.5
 -13.0900002   -7143399.
 -12.8999996   -7144826.5
 -12.71   -7146258.5
 -12.5200005   -7147675.5
 -12.3299999   -7149071.5
 -12.1400003   -7150460.
 -11.9499998   -7151865.5
 -11.7600002   -7153292.5
 -11.5699997   -7154734.
 -11.3800001   -7156166.5
 -11.1899996   -7157576.
 -11.   -7158976.5
 -10.8100004   -7160386.
 -10.6199999   -7161815.
 -10.4300003   -7163253.5
 -10.2399998   -7164683.5
 -10.0500002   -7166094.
 -9.85999966   -7167496.
 -9.67000008   -7168906.
 -9.47999954   -7170336.
 -9.28999996   -7171780.
 -9.10000038   -7173218.5
 -8.90999985   -7174638.5
 -8.72000027   -7176050.
 -8.52999973   -7177466.
 -8.34000015   -7178898.5
 -8.14999962   -7180340.
 -7.96000004   -7181780.
 -7.76999998   -7183203.5
 -7.57999992   -7184617.
 -7.38999987   -7186034.
 -7.19999981   -7187467.
 -7.01000023   -7188914.5
 -6.82000017   -7190361.5
 -6.63000011   -7191795.5
 -6.44000006   -7193224.
 -6.25   -7194656.5
 -6.05999994   -7196107.5
 -5.86999989   -7197576.5
 -5.67999983   -7199050.
 -5.48999977   -7200512.
 -5.30000019   -7201962.
 -5.11000013   -7203409.5
 -4.92000008   -7204862.5
 -4.73000002   -7206325.
 -4.53999996   -7207784.
 -4.3499999   -7209226.5
 -4.15999985   -7210655.5
 -3.97000003   -7212080.5
 -3.77999997   -7213522.5
 -3.58999991   -7214979.5
 -3.4000001   -7216440.
 -3.21000004   -7217895.
 -3.01999998   -7219344.
 -2.82999992   -7220790.
 -2.6400001   -7222251.5
 -2.45000005   -7223725.5
 -2.25999999   -7225204.5
 -2.06999993   -7226675.5
 -1.88   -7228139.5
 -1.69000006   -7229601.5
 -1.5   -7231075.
 -1.30999994   -7232558.5
 -1.12   -7234047.
 -0.930000007   -7235525.5
 -0.74000001   -7236993.5
 -0.550000012   -7238455.5
 -0.360000014   -7239924.
 -0.170000002   -7241399.5
 1.999999955E-2   -7242874.5
 0.209999993   -7244339.5
 0.400000006   -7245792.5
 0.589999974   -7247242.
 0.779999971   -7248697.5
 0.970000029   -7250161.
 1.15999997   -7251627.5
 1.35000002   -7253088.5
 1.53999996   -7254541.
 1.73000002   -7255984.5
 1.91999996   -7257433.5
 2.1099999   -7258889.5
 2.29999995   -7260348.5
 2.49000001   -7261806.
 2.68000007   -7263257.5
 2.86999989   -7264709.5
 3.05999994   -7266168.5
 3.25   -7267633.5
 3.44000006   -7269102.5
 3.63000011   -7270564.5
 3.81999993   -7272017.
 4.01000023   -7273464.
 4.19999981   -7274911.
 4.38999987   -7276360.
 4.57999992   -7277806.
 4.76999998   -7279248.5
 4.96000004   -7280684.5
 5.1500001   -7282116.
 5.34000015   -7283548.5
 5.53000021   -7284983.
 5.71999979   -7286419.5
 5.90999985   -7287851.
 6.0999999   -7289281.
 6.28999996   -7290709.5
 6.48000002   -7292139.5
 6.67000008   -7293570.5
 6.86000013   -7295003.5
 7.05000019   -7296438.5
 7.23999977   -7297876.
 7.42999983   -7299316.
 7.61999989   -7300760.5
 7.80999994   -7302204.5
 8.   -7303647.5
 8.18999958   -7305093.5
 8.38000011   -7306539.5
 8.56999969   -7307986.5
 8.76000023   -7309430.
 8.94999981   -7310874.
 9.14000034   -7312316.
 9.32999992   -7313758.5
 9.52000046   -7315200.5
 9.71000004   -7316641.5
 9.89999962   -7318083.
 10.0900002   -7319517.5
 10.2799997   -7320947.5
 10.4700003   -7322375.5
 10.6599998   -7323810.
 10.8500004   -7325245.
 11.04   -7326681.
 11.2299995   -7328110.5
 11.4200001   -7329537.5
 11.6099997   -7330966.
 11.8000002   -7332400.
 11.9899998   -7333836.
 12.1800003   -7335271.5
 12.3699999   -7336702.5
 12.5600004   -7338131.5
 12.75   -7339563.5
 12.9399996   -7340998.5
 13.1300001   -7342443.5
 13.3199997   -7343892.5
 13.5100002   -7345342.
 13.6999998   -7346793.5
 13.8900003   -7348246.5
 14.0799999   -7349704.
 14.2700005   -7351166.
 14.46   -7352626.5
 14.6499996   -7354078.
 14.8400002   -7355524.5
 15.0299997   -7356969.
 15.2200003   -7358418.
 15.4099998   -7359873.5
 15.6000004   -7361334.5
 15.79   -7362791.5
 15.9799995   -7364244.
 16.1700001   -7365698.
 16.3600006   -7367155.5
 16.5499992   -7368616.5
 16.7399998   -7370076.5
 16.9300003   -7371530.
 17.1200008   -7372973.5
 17.3099995   -7374414.5
 17.5   -7375858.
 17.6900005   -7377306.
 17.8799992   -7378755.5
 18.0699997   -7380201.5
 18.2600002   -7381646.
 18.4500008   -7383092.5
 18.6399994   -7384546.
 18.8299999   -7386006.5
 19.0200005   -7387468.5
 19.2099991   -7388927.5
 19.3999996   -7390382.5
 19.5900002   -7391834.
 19.7800007   -7393293.5
 19.9699993   -7394763.5
 20.1599998   -7396233.5
 20.3500004   -7397696.5
 20.5400009   -7399148.
 20.7299995   -7400592.5
 20.9200001   -7402040.5
 21.1100006   -7403493.
 21.2999992   -7404942.
 21.4899998   -7406381.
 21.6800003   -7407811.
 21.8700008   -7409238.
 22.0599995   -7410672.
 22.25   -7412116.5
 22.4400005   -7413565.
 22.6299992   -7415009.
 22.8199997   -7416444.
 23.0100002   -7417875.
 23.2000008   -7419315.
 23.3899994   -7420761.
 23.5799999   -7422206.5
 23.7700005   -7423644.
 23.9599991   -7425070.5
 24.1499996   -7426488.5
 24.3400002   -7427915.5
 24.5300007   -7429356.
 24.7199993   -7430803.
 24.9099998   -7432243.5
 25.1000004   -7433675.5
 25.2900009   -7435104.
 25.4799995   -7436541.
 25.6700001   -7437992.
 25.8600006   -7439445.
 26.0499992   -7440889.5
 26.2399998   -7442326.
 26.4300003   -7443756.5
 26.6200008   -7445195.
 26.8099995   -7446644.5
