 -30.   73148.9063
 -29.8099995   73152.2578
 -29.6200008   73145.4609
 -29.4300003   73135.4688
 -29.2399998   73126.7188
 -29.0499992   73123.6094
 -28.8600006   73128.4844
 -28.6700001   73139.5859
 -28.4799995   73156.0703
 -28.2900009   73171.4141
 -28.1000004   73182.1406
 -27.9099998   73185.0234
 -27.7199993   73181.1094
 -27.5300007   73171.4609
 -27.3400002   73161.5547
 -27.1499996   73155.3828
 -26.9599991   73156.7266
 -26.7700005   73166.1797
 -26.5799999   73188.3203
 -26.3899994   73217.8438
 -26.2000008   73249.4922
 -26.0100002   73277.9375
 -25.8199997   73296.6328
 -25.6299992   73308.9297
 -25.4400005   73312.9922
 -25.25   73315.0625
 -25.0599995   73317.5234
 -24.8700008   73326.8672
 -24.6800003   73341.9297
 -24.4899998   73366.0078
 -24.2999992   73395.3359
 -24.1100006   73428.8984
 -23.9200001   73458.3203
 -23.7299995   73481.8516
 -23.5400009   73496.375
 -23.3500004   73504.25
 -23.1599998   73508.1953
 -22.9699993   73515.0156
 -22.7800007   73525.2031
 -22.5900002   73540.4922
 -22.3999996   73562.9844
 -22.2099991   73590.1484
 -22.0200005   73617.4141
 -21.8299999   73643.6641
 -21.6399994   73662.0391
 -21.4500008   73672.7344
 -21.2600002   73675.6797
 -21.0699997   73674.1094
 -20.8799992   73672.3594
 -20.6900005   73674.5469
 -20.5   73680.1719
 -20.3099995   73691.8438
 -20.1200008   73707.3438
 -19.9300003   73724.3359
 -19.7399998   73740.1328
 -19.5499992   73751.4844
 -19.3600006   73759.7656
 -19.1700001   73759.4609
 -18.9799995   73757.0859
 -18.7900009   73751.9922
 -18.6000004   73750.5625
 -18.4099998   73752.1484
 -18.2199993   73759.2422
 -18.0300007   73772.9297
 -17.8400002   73787.5313
 -17.6499996   73804.0625
 -17.4599991   73817.0078
 -17.2700005   73826.2422
 -17.0799999   73832.6797
 -16.8899994   73834.9453
 -16.7000008   73838.1875
 -16.5100002   73842.5156
 -16.3199997   73849.8203
 -16.1299992   73865.4531
 -15.9399996   73884.4297
 -15.75   73907.0625
 -15.5600004   73929.375
 -15.3699999   73946.7188
 -15.1800003   73958.3359
 -14.9899998   73970.3125
 -14.8000002   73978.9453
 -14.6099997   73993.1797
 -14.4200001   74006.5078
 -14.2299995   74025.1016
 -14.04   74046.4844
 -13.8500004   74072.4844
 -13.6599998   74097.3125
 -13.4700003   74121.6797
 -13.2799997   74142.5547
 -13.0900002   74161.0078
 -12.8999996   74180.4453
 -12.71   74199.0391
 -12.5200005   74222.8047
 -12.3299999   74246.0391
 -12.1400003   74274.5313
 -11.9499998   74302.5078
 -11.7600002   74329.1328
 -11.5699997   74353.6094
 -11.3800001   74373.8047
 -11.1899996   74393.9922
 -11.   74411.75
 -10.8100004   74427.7344
 -10.6199999   74445.4063
 -10.4300003   74466.3594
 -10.2399998   74488.5547
 -10.0500002   74513.8516
 -9.85999966   74538.3516
 -9.67000008   74560.7188
 -9.47999954   74578.6563
 -9.28999996   74593.1797
 -9.10000038   74605.1016
 -8.90999985   74613.7656
 -8.72000027   74624.25
 -8.52999973   74633.3203
 -8.34000015   74645.6172
 -8.14999962   74663.7969
 -7.96000004   74682.9844
 -7.76999998   74704.1563
 -7.57999992   74723.8906
 -7.38999987   74742.8359
 -7.19999981   74756.2188
 -7.01000023   74766.2656
 -6.82000017   74772.1094
 -6.63000011   74778.0625
 -6.44000006   74779.75
 -6.25   74784.2969
 -6.05999994   74787.125
 -5.86999989   74791.6094
 -5.67999983   74800.6016
 -5.48999977   74808.6328
 -5.30000019   74817.4922
 -5.11000013   74820.3516
 -4.92000008   74818.0547
 -4.73000002   74811.3438
 -4.53999996   74803.9453
 -4.3499999   74798.4766
 -4.15999985   74795.6719
 -3.97000003   74798.6641
 -3.77999997   74804.2656
 -3.58999991   74811.7344
 -3.4000001   74813.9688
 -3.21000004   74814.3516
 -3.01999998   74812.7109
 -2.82999992   74805.8906
 -2.6400001   74798.1484
 -2.45000005   74792.7578
 -2.25999999   74792.
 -2.06999993   74798.5547
 -1.88   74811.6406
 -1.69000006   74826.6719
 -1.5   74841.3828
 -1.30999994   74853.7891
 -1.12   74859.0547
 -0.930000007   74860.5313
 -0.74000001   74857.8828
 -0.550000012   74852.6875
 -0.360000014   74849.2813
 -0.170000002   74852.0547
 1.999999955E-2   74855.0781
 0.209999993   74865.6875
 0.400000006   74879.4844
 0.589999974   74896.9375
 0.779999971   74908.9063
 0.970000029   74920.1484
 1.15999997   74923.1406
 1.35000002   74922.5781
 1.53999996   74920.2031
 1.73000002   74916.6563
 1.91999996   74915.7734
 2.1099999   74919.2344
 2.29999995   74927.8125
 2.49000001   74940.9531
 2.68000007   74958.4844
 2.86999989   74976.2109
 3.05999994   74992.3594
 3.25   75004.25
 3.44000006   75011.5313
 3.63000011   75017.1563
 3.81999993   75024.1328
 4.01000023   75035.
 4.19999981   75049.3047
 4.38999987   75073.4844
 4.57999992   75099.6641
 4.76999998   75129.75
 4.96000004   75161.6953
 5.1500001   75187.8516
 5.34000015   75210.3203
 5.53000021   75223.3516
 5.71999979   75232.8828
 5.90999985   75239.1406
 6.0999999   75244.9219
 6.28999996   75257.3047
 6.48000002   75272.125
 6.67000008   75292.8047
 6.86000013   75316.5
 7.05000019   75340.4063
 7.23999977   75360.5156
 7.42999983   75379.3203
 7.61999989   75394.1719
 7.80999994   75402.8359
 8.   75407.2344
 8.18999958   75412.4297
 8.38000011   75418.
 8.56999969   75431.9766
 8.76000023   75450.1953
 8.94999981   75475.5938
 9.14000034   75504.0313
 9.32999992   75534.3125
 9.52000046   75559.8203
 9.71000004   75580.4141
 9.89999962   75591.0313
 10.0900002   75598.0703
 10.2799997   75598.7031
 10.4700003   75604.2813
 10.6599998   75612.0156
 10.8500004   75626.0078
 11.04   75650.6172
 11.2299995   75681.7109
 11.4200001   75715.1328
 11.6099997   75745.7188
 11.8000002   75771.9609
 11.9899998   75790.9844
 12.1800003   75802.5547
 12.3699999   75808.6641
 12.5600004   75811.2031
 12.75   75817.6953
 12.9399996   75827.9297
 13.1300001   75843.9219
 13.3199997   75865.1172
 13.5100002   75890.5156
 13.6999998   75915.6094
 13.8900003   75939.7109
 14.0799999   75960.9297
 14.2700005   75978.1875
 14.46   75990.7344
 14.6499996   76001.1328
 14.8400002   76014.9219
 15.0299997   76028.3047
 15.2200003   76049.3125
 15.4099998   76076.9375
 15.6000004   76113.0156
 15.79   76151.2734
 15.9799995   76190.2656
 16.1700001   76223.5234
 16.3600006   76249.3828
 16.5499992   76266.6953
 16.7399998   76275.6016
 16.9300003   76281.9688
 17.1200008   76293.1797
 17.3099995   76310.8516
 17.5   76337.7109
 17.6900005   76370.4609
 17.8799992   76405.4063
 18.0699997   76438.7813
 18.2600002   76460.0547
 18.4500008   76470.9688
 18.6399994   76472.1719
 18.8299999   76466.8438
 19.0200005   76461.6484
 19.2099991   76459.9219
 19.3999996   76467.6875
 19.5900002   76483.5703
 19.7800007   76509.2656
 19.9699993   76544.2891
 20.1599998   76580.3438
 20.3500004   76610.2734
 20.5400009   76635.0469
 20.7299995   76650.4141
 20.9200001   76655.8203
 21.1100006   76657.5156
 21.2999992   76654.2188
 21.4899998   76655.3906
 21.6800003   76666.3359
 21.8700008   76687.4766
 22.0599995   76721.6094
 22.25   76761.5156
 22.4400005   76801.5391
 22.6299992   76833.0391
 22.8199997   76852.6953
 23.0100002   76860.8359
 23.2000008   76862.3438
 23.3899994   76860.7266
 23.5799999   76865.0234
 23.7700005   76880.1172
 23.9599991   76904.9453
 24.1499996   76940.8203
 24.3400002   76977.75
 24.5300007   77012.0156
 24.7199993   77036.4844
 24.9099998   77049.3906
 25.1000004   77054.3594
 25.2900009   77054.7266
 25.4799995   77056.7656
 25.6700001   77065.5156
 25.8600006   77084.4609
 26.0499992   77110.6953
 26.2399998   77143.7734
 26.4300003   77177.3672
 26.6200008   77211.7422
 26.8099995   77241.0703
