 -30.   8518314.
 -29.8099995   8520101.
 -29.6200008   8521926.
 -29.4300003   8523772.
 -29.2399998   8525614.
 -29.0499992   8527436.
 -28.8600006   8529226.
 -28.6700001   8530989.
 -28.4799995   8532731.
 -28.2900009   8534474.
 -28.1000004   8536236.
 -27.9099998   8538029.
 -27.7199993   8539858.
 -27.5300007   8541717.
 -27.3400002   8543589.
 -27.1499996   8545454.
 -26.9599991   8547293.
 -26.7700005   8549092.
 -26.5799999   8550847.
 -26.3899994   8552574.
 -26.2000008   8554283.
 -26.0100002   8556005.
 -25.8199997   8557756.
 -25.6299992   8559543.
 -25.4400005   8561365.
 -25.25   8563209.
 -25.0599995   8565058.
 -24.8700008   8566891.
 -24.6800003   8568688.
 -24.4899998   8570448.
 -24.2999992   8572175.
 -24.1100006   8573883.
 -23.9200001   8575594.
 -23.7299995   8577328.
 -23.5400009   8579096.
 -23.3500004   8580898.
 -23.1599998   8582724.
 -22.9699993   8584557.
 -22.7800007   8586377.
 -22.5900002   8588171.
 -22.3999996   8589927.
 -22.2099991   8591647.
 -22.0200005   8593343.
 -21.8299999   8595034.
 -21.6399994   8596735.
 -21.4500008   8598467.
 -21.2600002   8600230.
 -21.0699997   8602022.
 -20.8799992   8603829.
 -20.6900005   8605629.
 -20.5   8607409.
 -20.3099995   8609158.
 -20.1200008   8610873.
 -19.9300003   8612560.
 -19.7399998   8614234.
 -19.5499992   8615908.
 -19.3600006   8617603.
 -19.1700001   8619330.
 -18.9799995   8621088.
 -18.7900009   8622868.
 -18.6000004   8624656.
 -18.4099998   8626429.
 -18.2199993   8628176.
 -18.0300007   8629891.
 -17.8400002   8631580.
 -17.6499996   8633250.
 -17.4599991   8634919.
 -17.2700005   8636599.
 -17.0799999   8638305.
 -16.8899994   8640039.
 -16.7000008   8641801.
 -16.5100002   8643575.
 -16.3199997   8645339.
 -16.1299992   8647079.
 -15.9399996   8648790.
 -15.75   8650466.
 -15.5600004   8652119.
 -15.3699999   8653765.
 -15.1800003   8655414.
 -14.9899998   8657081.
 -14.8000002   8658774.
 -14.6099997   8660497.
 -14.4200001   8662237.
 -14.2299995   8663981.
 -14.04   8665712.
 -13.8500004   8667417.
 -13.6599998   8669089.
 -13.4700003   8670738.
 -13.2799997   8672373.
 -13.0900002   8674012.
 -12.8999996   8675664.
 -12.71   8677342.
 -12.5200005   8679047.
 -12.3299999   8680771.
 -12.1400003   8682508.
 -11.9499998   8684242.
 -11.7600002   8685958.
 -11.5699997   8687646.
 -11.3800001   8689307.
 -11.1899996   8690950.
 -11.   8692589.
 -10.8100004   8694240.
 -10.6199999   8695911.
 -10.4300003   8697608.
 -10.2399998   8699328.
 -10.0500002   8701066.
 -9.85999966   8702810.
 -9.67000008   8704545.
 -9.47999954   8706256.
 -9.28999996   8707944.
 -9.10000038   8709608.
 -8.90999985   8711257.
 -8.72000027   8712909.
 -8.52999973   8714578.
 -8.34000015   8716272.
 -8.14999962   8717993.
 -7.96000004   8719733.
 -7.76999998   8721482.
 -7.57999992   8723224.
 -7.38999987   8724952.
 -7.19999981   8726658.
 -7.01000023   8728337.
 -6.82000017   8730000.
 -6.63000011   8731657.
 -6.44000006   8733325.
 -6.25   8735016.
 -6.05999994   8736732.
 -5.86999989   8738472.
 -5.67999983   8740227.
 -5.48999977   8741982.
 -5.30000019   8743729.
 -5.11000013   8745453.
 -4.92000008   8747158.
 -4.73000002   8748838.
 -4.53999996   8750506.
 -4.3499999   8752171.
 -4.15999985   8753844.
 -3.97000003   8755536.
 -3.77999997   8757253.
 -3.58999991   8758983.
 -3.4000001   8760721.
 -3.21000004   8762453.
 -3.01999998   8764169.
 -2.82999992   8765863.
 -2.6400001   8767533.
 -2.45000005   8769188.
 -2.25999999   8770831.
 -2.06999993   8772479.
 -1.88   8774143.
 -1.69000006   8775830.
 -1.5   8777541.
 -1.30999994   8779272.
 -1.12   8781004.
 -0.930000007   8782725.
 -0.74000001   8784425.
 -0.550000012   8786101.
 -0.360000014   8787760.
 -0.170000002   8789405.
 1.999999955E-2   8791050.
 0.209999993   8792704.
 0.400000006   8794375.
 0.589999974   8796068.
 0.779999971   8797778.
 0.970000029   8799494.
 1.15999997   8801205.
 1.35000002   8802902.
 1.53999996   8804578.
 1.73000002   8806234.
 1.91999996   8807876.
 2.1099999   8809518.
 2.29999995   8811164.
 2.49000001   8812825.
 2.68000007   8814504.
 2.86999989   8816200.
 3.05999994   8817906.
 3.25   8819613.
 3.44000006   8821310.
 3.63000011   8822987.
 3.81999993   8824638.
 4.01000023   8826272.
 4.19999981   8827893.
 4.38999987   8829516.
 4.57999992   8831146.
 4.76999998   8832795.
 4.96000004   8834462.
 5.1500001   8836143.
 5.34000015   8837831.
 5.53000021   8839520.
 5.71999979   8841200.
 5.90999985   8842861.
 6.0999999   8844503.
 6.28999996   8846133.
 6.48000002   8847759.
 6.67000008   8849390.
 6.86000013   8851039.
 7.05000019   8852704.
 7.23999977   8854388.
 7.42999983   8856082.
 7.61999989   8857773.
 7.80999994   8859455.
 8.   8861116.
 8.18999958   8862753.
 8.38000011   8864367.
 8.56999969   8865966.
 8.76000023   8867565.
 8.94999981   8869171.
 9.14000034   8870798.
 9.32999992   8872448.
 9.52000046   8874116.
 9.71000004   8875796.
 9.89999962   8877477.
 10.0900002   8879147.
 10.2799997   8880800.
 10.4700003   8882434.
 10.6599998   8884053.
 10.8500004   8885665.
 11.04   8887287.
 11.2299995   8888926.
 11.4200001   8890587.
 11.6099997   8892268.
 11.8000002   8893961.
 11.9899998   8895654.
 12.1800003   8897333.
 12.3699999   8898991.
 12.5600004   8900619.
 12.75   8902223.
 12.9399996   8903811.
 13.1300001   8905396.
 13.3199997   8906992.
 13.5100002   8908607.
 13.6999998   8910243.
 13.8900003   8911896.
 14.0799999   8913558.
 14.2700005   8915213.
 14.46   8916851.
 14.6499996   8918466.
 14.8400002   8920058.
 15.0299997   8921637.
 15.2200003   8923218.
 15.4099998   8924810.
 15.6000004   8926427.
 15.79   8928074.
 15.9799995   8929742.
 16.1700001   8931424.
 16.3600006   8933107.
 16.5499992   8934775.
 16.7399998   8936420.
 16.9300003   8938047.
 17.1200008   8939656.
 17.3099995   8941262.
 17.5   8942872.
 17.6900005   8944501.
 17.8799992   8946148.
 18.0699997   8947814.
 18.2600002   8949494.
 18.4500008   8951177.
 18.6399994   8952850.
 18.8299999   8954505.
 19.0200005   8956140.
 19.2099991   8957750.
 19.3999996   8959344.
 19.5900002   8960931.
 19.7800007   8962519.
 19.9699993   8964119.
 20.1599998   8965739.
 20.3500004   8967374.
 20.5400009   8969020.
 20.7299995   8970668.
 20.9200001   8972304.
 21.1100006   8973920.
 21.2999992   8975517.
 21.4899998   8977097.
 21.6800003   8978670.
 21.8700008   8980250.
 22.0599995   8981849.
 22.25   8983470.
 22.4400005   8985113.
 22.6299992   8986770.
 22.8199997   8988430.
 23.0100002   8990077.
 23.2000008   8991704.
 23.3899994   8993308.
 23.5799999   8994889.
 23.7700005   8996461.
 23.9599991   8998035.
 24.1499996   8999625.
 24.3400002   9001235.
 24.5300007   9002864.
 24.7199993   9004506.
 24.9099998   9006148.
 25.1000004   9007781.
 25.2900009   9009392.
 25.4799995   9010979.
 25.6700001   9012547.
 25.8600006   9014100.
 26.0499992   9015655.
 26.2399998   9017220.
 26.4300003   9018807.
 26.6200008   9020416.
 26.8099995   9022041.
