 -4.500000000   0.1064134936E-16
 -4.373207569   0.1064134275E-16
 -4.246414661   0.1064133199E-16
 -4.119622231   0.1064131876E-16
 -3.992829323   0.1064130552E-16
 -3.866036654   0.1064129394E-16
 -3.739243984   0.1064128567E-16
 -3.612451553   0.1064127988E-16
 -3.485658884   0.1064127657E-16
 -3.358866215   0.1064127492E-16
 -3.232073545   0.1064127243E-16
 -3.105280876   0.1064126747E-16
 -2.978488207   0.1064126085E-16
 -2.851695538   0.1064125258E-16
 -2.724902868   0.1064124183E-16
 -2.598110199   0.1064123190E-16
 -2.471317530   0.1064122280E-16
 -2.344524860   0.1064121536E-16
 -2.217732191   0.1064120791E-16
 -2.090939522   0.1064120130E-16
 -1.964146972   0.1064119385E-16
 -1.837354302   0.1064118475E-16
 -1.710561633   0.1064117400E-16
 -1.583768964   0.1064116159E-16
 -1.456976295   0.1064114918E-16
 -1.330183744   0.1064113760E-16
 -1.203391075   0.1064113016E-16
 -1.076598406   0.1064112602E-16
 -0.9498057365   0.1064112602E-16
 -0.8230130672   0.1064112933E-16
 -0.6962204576   0.1064113430E-16
 -0.5694277883   0.1064114009E-16
 -0.4426351190   0.1064114670E-16
 -0.3158424795   0.1064115249E-16
 -0.1890498251   0.1064115663E-16
 -0.6225717068E-01   0.1064115001E-16
 0.6453548372E-01   0.1064112106E-16
 0.1913281381   0.1064104910E-16
 0.3181207776   0.1064091178E-16
 0.4449134469   0.1064069837E-16
 0.5717061162   0.1064042292E-16
 0.6984987259   0.1064014416E-16
 0.8252913952   0.1063998121E-16
 0.9520840645   0.1064010115E-16
 1.078876734   0.1064068845E-16
 1.205669403   0.1064186635E-16
 1.332461953   0.1064359516E-16
 1.459254622   0.1064555806E-16
 1.586047292   0.1064708338E-16
 1.712839961   0.1064716113E-16
 1.839632630   0.1064461011E-16
 1.966425300   0.1063842197E-16
 2.093217850   0.1062827164E-16
 2.220010519   0.1061508555E-16
 2.346803188   0.1060149828E-16
 2.473595858   0.1059197909E-16
 2.600388527   0.1059238441E-16
 2.727181196   0.1060882214E-16
 2.853973866   0.1064585584E-16
 2.980766535   0.1070435240E-16
 3.107559204   0.1077951665E-16
 3.234351873   0.1085985408E-16
 3.361144543   0.1092777719E-16
 3.487936974   0.1096235169E-16
 3.614729643   0.1094417026E-16
 3.741522312   0.1086163583E-16
 3.868314981   0.1071727627E-16
 3.995107651   0.1053223266E-16
 4.121900558   0.1034702527E-16
 4.248692989   0.1021733079E-16
 4.375485420   0.1020462281E-16
 4.502278328   0.1036307422E-16
 4.629070759   0.1072550093E-16
 4.755863667   0.1129195256E-16
 4.882656097   0.1202436061E-16
 5.009449005   0.1284923917E-16
 5.136241436   0.1366819513E-16
 5.263034344   0.1437345925E-16
 5.389826775   0.1486392606E-16
 5.516619682   0.1505697182E-16
 5.643412113   0.1489318344E-16
 5.770205021   0.1433456356E-16
 5.896997452   0.1336062043E-16
 6.023790359   0.1196930595E-16
 6.150582790   0.1018911318E-16
 6.277375221   0.8104201963E-17
 6.404168129   0.5886632897E-17
 6.530960560   0.3821249762E-17
 6.657753468   0.2303071210E-17
 6.784545898   0.1788090894E-17
 6.911338806   0.2688376489E-17
 7.038131237   0.5220624705E-17
 7.164924145   0.9239524724E-17
 7.291716576   0.1410596889E-16
 7.418509483   0.1864700020E-16
 7.545301914   0.2125302279E-16
 7.672094822   0.2012691731E-16
 7.798887253   0.1365492219E-16
 7.925679684   0.8225540363E-18
 8.052472115   -0.1843336261E-16
 8.179265022   -0.4304929149E-16
 8.306057930   -0.7091599386E-16
 8.432850838   -0.9922984360E-16
 8.559642792   -0.1250448403E-15
 8.686435699   -0.1458791111E-15
 8.813228607   -0.1601868873E-15
 8.940021515   -0.1675180633E-15
 9.066813469   -0.1682590054E-15
 9.193606377   -0.1629671671E-15
 9.320399284   -0.1514495307E-15
 9.447192192   -0.1318524838E-15
 9.573984146   -0.1000891916E-15
 9.700777054   -0.4990637392E-16
 9.827569962   0.2621944001E-16
 9.954361916   0.1353474211E-15
 10.08115482   0.2817030942E-15
 10.20794773   0.4640757993E-15
 10.33474064   0.6735251831E-15
 10.46153259   0.8919879504E-15
 10.58832550   0.1092325642E-14
 10.71511841   0.1240198748E-14
 10.84191132   0.1297913032E-14
 10.96870327   0.1230088986E-14
 11.09549618   0.1010662984E-14
 11.22228909   0.6303985006E-15
 11.34908199   0.1037816067E-15
 11.47587395   -0.5260310183E-15
 11.60266685   -0.1185603769E-14
 11.72945976   -0.1774189282E-14
 11.85625172   -0.2172085338E-14
 11.98304462   -0.2254515620E-14
 12.10983753   -0.1910249031E-14
 12.23663044   -0.1063168439E-14
 12.36342239   0.3059646589E-15
 12.49021530   0.2140969160E-14
 12.61700821   0.4298544824E-14
 12.74380112   0.6546656663E-14
 12.87059307   0.8575189610E-14
 12.99738598   0.1001952139E-13
 13.12417889   0.1049576736E-13
 13.25097084   0.9644605976E-14
 13.37776375   0.7179029439E-14
 13.50455666   0.2930491958E-14
 13.63134956   -0.3112145585E-14
 13.75814152   -0.1077576088E-13
 13.88493443   -0.1969154074E-13
 14.01172733   -0.2930057049E-13
 14.13852024   -0.3887595947E-13
 14.26531219   -0.4755950069E-13
 14.39210510   -0.5440982205E-13
 14.51889801   -0.5845853451E-13
 14.64569092   -0.5877123197E-13
 14.77248287   -0.5451092391E-13
 14.89927578   -0.4500200329E-13
 15.02606869   -0.2979335054E-13
 15.15286064   -0.8719004793E-14
 15.27965355   0.1804637406E-13
 15.40644646   0.4994122181E-13
 15.53323936   0.8598598721E-13
 15.66003132   0.1247743906E-12
 15.78682423   0.1644946928E-12
 15.91361713   0.2029874614E-12
 16.04040909   0.2378433008E-12
 16.16720200   0.2665392863E-12
 16.29399490   0.2866069198E-12
 16.42078781   0.2958177323E-12
 16.54758072   0.2923664728E-12
 16.67437363   0.2750284267E-12
 16.80116463   0.2432654772E-12
 16.92795753   0.1972579001E-12
 17.05475044   0.1378457759E-12
 17.18154335   0.6637306807E-13
 17.30833626   -0.1555960391E-13
 17.43512917   -0.1064134471E-12
 17.56192207   -0.2050674897E-12
 17.68871498   -0.3111653730E-12
 17.81550598   -0.4253981065E-12
 17.94229889   -0.5496629627E-12
 18.06909180   -0.6870396721E-12
 18.19588470   -0.8415319765E-12
 18.32267761   -0.1017536966E-11
 18.44947052   -0.1219020436E-11
 18.57626343   -0.1448405740E-11
 18.70305443   -0.1705208891E-11
 18.82984734   -0.1984490697E-11
 18.95664024   -0.2275232737E-11
 19.08343315   -0.2558780661E-11
 19.21022606   -0.2807544128E-11
 19.33701897   -0.2984162396E-11
 19.46381187   -0.3041379431E-11
 19.59060478   -0.2922870062E-11
 19.71739578   -0.2565246193E-11
 19.84418869   -0.1901422379E-11
 19.97098160   -0.8654469285E-12
 20.09777451   0.6012137945E-12
 20.22456741   0.2542081996E-11
 20.35136032   0.4977085584E-11
 20.47815323   0.7893474069E-11
 20.60494423   0.1123688469E-10
 20.73173714   0.1490337194E-10
 20.85853004   0.1873329096E-10
 20.98532295   0.2250800067E-10
 21.11211586   0.2595029226E-10
 21.23890877   0.2872938172E-10
 21.36570168   0.3047109787E-10
 21.49249458   0.3077366487E-10
 21.61928558   0.2922911219E-10
 21.74607849   0.2545004485E-10
 21.87287140   0.1910099336E-10
 21.99966431   0.9933207902E-11
 22.12645721   -0.2178760861E-11
 22.25325012   -0.1720071308E-10
 22.38004303   -0.3490512740E-10
 22.50683403   -0.5484289065E-10
 22.63362694   -0.7632335042E-10
 22.76041985   -0.9840563087E-10
 22.88721275   -0.1199039895E-09
 23.01400566   -0.1394097615E-09
 23.14079857   -0.1553316364E-09
 23.26759148   -0.1659552079E-09
 23.39438438   -0.1695220769E-09
 23.52117538   -0.1643267883E-09
 23.64796829   -0.1488293377E-09
 23.77476120   -0.1217788925E-09
 23.90155411   -0.8234327803E-10
 24.02834702   -0.3023730225E-10
 24.15513992   0.3415785016E-10
 24.28193283   0.1096931296E-09
 24.40872383   0.1943769035E-09
 24.53551674   0.2853361158E-09
 24.66230965   0.3788214464E-09
 24.78910255   0.4702633283E-09
 24.91589546   0.5543838166E-09
 25.04268837   0.6253672580E-09
 25.16948128   0.6770882743E-09
 25.29627419   0.7033936766E-09
 25.42306519   0.6984313683E-09
 25.54985809   0.6570129996E-09
 25.67665100   0.5749974941E-09
 25.80344391   0.4496760464E-09
 25.93023682   0.2801382182E-09
 26.05702972   0.6759656029E-10
 26.18382263   -0.1843531716E-09
 26.31061363   -0.4695592248E-09
 26.43740654   -0.7792492762E-09
 26.56419945   -0.1102092306E-08
 26.69099236   -0.1424399154E-08
 26.81778526   -0.1730470767E-08
 26.94457817   -0.2003094801E-08
 27.07137108   -0.2224183948E-08
 27.19816399   -0.2375540875E-08
 27.32495499   -0.2439729974E-08
 27.45174789   -0.2401021382E-08
 27.57854080   -0.2246373310E-08
 27.70533371   -0.1966406371E-08
 27.83212662   -0.1556324403E-08
 27.95891953   -0.1016725371E-08
 28.08571243   -0.3542575400E-09
 28.21250343   0.4179357138E-09
 28.33929634   0.1280022977E-08
 28.46608925   0.2205584382E-08
 28.59288216   0.3162031303E-08
 28.71967506   0.4111361029E-08
 28.84646797   0.5011247417E-08
 28.97326088   0.5816456206E-08
 29.10005379   0.6480544545E-08
 29.22684479   0.6957807219E-08
 29.35363770   0.7205390062E-08
 29.48043060   0.7185501527E-08
 29.60722351   0.6867618474E-08
 29.73401642   0.6230591598E-08
 29.86080933   0.5264538583E-08
 29.98760223   0.3972416174E-08
 30.11439323   0.2371171703E-08
 30.24118614   0.4923799701E-09
 30.36797905   -0.1617708967E-08
 30.49477196   -0.3898763978E-08
 30.62156487   -0.6277636633E-08
 30.74835777   -0.8670297369E-08
 30.87515068   -0.1098440094E-07
 31.00194168   -0.1312241782E-07
 31.12873459   -0.1498524682E-07
 31.25552750   -0.1647615200E-07
 31.38232040   -0.1750489709E-07
 31.50911331   -0.1799188709E-07
 31.63590622   -0.1787214998E-07
 31.76269913   -0.1709895514E-07
 31.88949203   -0.1564688468E-07
 32.01628494   -0.1351421641E-07
 32.14307785   -0.1072444533E-07
 32.26987076   -0.7326859564E-08
 32.39666367   -0.3396085857E-08
 32.52345276   0.9694045566E-09
 32.65024567   0.5649815726E-08
 32.77703857   0.1050748999E-07
 32.90383148   0.1539119587E-07
 33.03062439   0.2014108880E-07
 33.15741730   0.2459413118E-07
 33.28421021   0.2858976345E-07
 33.41100311   0.3197558840E-07
 33.53779602   0.3461283882E-07
 33.66458893   0.3638140100E-07
 33.79138184   0.3718416153E-07
 33.91817474   0.3695056705E-07
 34.04496765   0.3563920004E-07
 34.17176056   0.3323936681E-07
 34.29855347   0.2977155589E-07
 34.42534256   0.2528692988E-07
 34.55213547   0.1986577658E-07
 34.67892838   0.1361514546E-07
 34.80572128   0.6665752394E-08
 34.93251419   -0.8316592970E-09
 35.05930710   -0.8710322241E-08
 35.18610001   -0.1679162409E-07
 35.31289291   -0.2488932083E-07
 35.43968582   -0.3281360961E-07
 35.56647873   -0.4037496026E-07
 35.69327164   -0.4738769732E-07
 35.82006454   -0.5367316547E-07
 35.94685745   -0.5906265699E-07
 36.07365036   -0.6340000880E-07
 36.20044327   -0.6654408224E-07
 36.32723236   -0.6837103683E-07
 36.45402527   -0.6877672831E-07
 36.58081818   -0.6767913163E-07
 36.70761108   -0.6502092731E-07
 36.83440399   -0.6077232229E-07
 36.96119690   -0.5493398447E-07
 37.08798981   -0.4754013716E-07
 37.21478271   -0.3866156462E-07
 37.34157562   -0.2840843649E-07
 37.46836853   -0.1693259932E-07
 37.59516144   -0.4429149492E-08
 37.72195435   0.8863080936E-08
 37.84874725   0.2266244081E-07
 37.97554016   0.3664705162E-07
 38.10232925   0.5045932738E-07
 38.22912216   0.6371263339E-07
 38.35591507   0.7600014129E-07
 38.48270798   0.8690587094E-07
 38.60950089   0.9601776441E-07
 38.73629379   0.1029425150E-06
 38.86308670   0.1073216964E-06
 38.98987961   0.1088487096E-06
 39.11667252   0.1072857501E-06
 39.24346542   0.1024801861E-06
 39.37025833   0.9437938786E-07
 39.49705124   0.8304319010E-07
 39.62384415   0.6865320756E-07
 39.75063705   0.5151810711E-07
 39.87742996   0.3207428634E-07
 40.00421906   0.1088132784E-07
 40.13101196   -0.1138804961E-07
 40.25780487   -0.3396367987E-07
 40.38459778   -0.5599912001E-07
 40.51139069   -0.7659797063E-07
 40.63818359   -0.9484459440E-07
 40.76497650   -0.1098384175E-06
 40.89176941   -0.1207306184E-06
 41.01856232   -0.1267620178E-06
 41.14535522   -0.1273003534E-06
 41.27214813   -0.1218759280E-06
 41.39894104   -0.1102135982E-06
 41.52573395   -0.9225978204E-07
 41.65252686   -0.6820310716E-07
 41.77931976   -0.3848749941E-07
 41.90610886   -0.3816690075E-08
 42.03290176   0.3485038391E-07
 42.15969467   0.7631356880E-07
 42.28648758   0.1191548691E-06
 42.41328049   0.1617704015E-06
 42.54007339   0.2024104191E-06
 42.66686630   0.2392257556E-06
 42.79365921   0.2703193616E-06
 42.92045212   0.2938007242E-06
 43.04724503   0.3078414466E-06
 43.17403793   0.3107296607E-06
 43.30083084   0.3009208456E-06
 43.42762375   0.2770831316E-06
 43.55441666   0.2381352147E-06
 43.68120956   0.1832747216E-06
 43.80799866   0.1119961510E-06
 43.93479156   0.2409719002E-07
 44.06158447   -0.8032704102E-07
 44.18837738   -0.2009017237E-06
 44.31517029   -0.3370014667E-06
 44.44196320   -0.4877898618E-06
 44.56875610   -0.6522674312E-06
 44.69554901   -0.8293267797E-06
 44.82234192   -0.1017811428E-05
 44.94913483   -0.1216576152E-05
 45.07592773   -0.1424547236E-05
 45.20272064   -0.1640776418E-05
 45.32951355   -0.1864489377E-05
 45.45630646   -0.2095123818E-05
 45.58309937   -0.2332354825E-05
 45.70988846   -0.2576107363E-05
 45.83668137   -0.2826552191E-05
 45.96347427   -0.3084085392E-05
 46.09026718   -0.3349292683E-05
 46.21706009   -0.3622898021E-05
 46.34385300   -0.3905695849E-05
 46.47064590   -0.4198474016E-05
 46.59743881   -0.4501926014E-05
 46.72423172   -0.4816555702E-05
 46.85102463   -0.5142584087E-05
 46.97781754   -0.5479853826E-05
 47.10461044   -0.5827744189E-05
 47.23140335   -0.6185093298E-05
 47.35819626   -0.6550139915E-05
 47.48498917   -0.6920479791E-05
 47.61177826   -0.7293050658E-05
 47.73857117   -0.7664135410E-05
 47.86536407   -0.8029399396E-05
 47.99215698   -0.8383948625E-05
 48.11894989   -0.8722422535E-05
 48.24574280   -0.9039108591E-05
 48.37253571   -0.9328081433E-05
 48.49932861   -0.9583362953E-05
 48.62612152   -0.9799096006E-05
 48.75291443   -0.9969729945E-05
 48.87970734   -0.1009020616E-04
 49.00650024   -0.1015614725E-04
 49.13329315   -0.1016402530E-04
 49.26008606   -0.1011132372E-04
 49.38687897   -0.9996669178E-05
 49.51366806   -0.9819932529E-05
 49.64046097   -0.9582302482E-05
 49.76725388   -0.9286309250E-05
 49.89404678   -0.8935815458E-05
 50.02083969   -0.8535961570E-05
 50.14763260   -0.8093068573E-05
 50.27442551   -0.7614497463E-05
 50.40121841   -0.7108476893E-05
 50.52801132   -0.6583894901E-05
 50.65480423   -0.6050066531E-05
 50.78159714   -0.5516483270E-05
 50.90839005   -0.4992554750E-05
 51.03518295   -0.4487343176E-05
 51.16197586   -0.4009314125E-05
 51.28876877   -0.3566100759E-05
 51.41555786   -0.3164291002E-05
 51.54235077   -0.2809250873E-05
 51.66914368   -0.2504986242E-05
 51.79593658   -0.2254048923E-05
 51.92272949   -0.2057487791E-05
 52.04952240   -0.1914849918E-05
 52.17631531   -0.1824230139E-05
 52.30310822   -0.1782367121E-05
 52.42990112   -0.1784779215E-05
 52.55669403   -0.1825939989E-05
 52.68348694   -0.1899479912E-05
 52.81027985   -0.1998415655E-05
 52.93707275   -0.2115387360E-05
 53.06386566   -0.2242901246E-05
 53.19065857   -0.2373577445E-05
 53.31744766   -0.2500373512E-05
 53.44424057   -0.2616793381E-05
 53.57103348   -0.2717076086E-05
 53.69782639   -0.2796343324E-05
 53.82461929   -0.2850718147E-05
 53.95141220   -0.2877402267E-05
 54.07820511   -0.2874719712E-05
 54.20499802   -0.2842118874E-05
 54.33179092   -0.2780138857E-05
 54.45858383   -0.2690348083E-05
 54.58537674   -0.2575250392E-05
 54.71216965   -0.2438170668E-05
 54.83896255   -0.2283126832E-05
 54.96575546   -0.2114684094E-05
 55.09254837   -0.1937812158E-05
 55.21933746   -0.1757735390E-05
 55.34613037   -0.1579788545E-05
 55.47292328   -0.1409287847E-05
 55.59971619   -0.1251400022E-05
 55.72650909   -0.1111035203E-05
 55.85330200   -0.9927522342E-06
 55.98009491   -0.9006716368E-06
 56.10688782   -0.8384062085E-06
 56.23368073   -0.8090020174E-06
 56.36047363   -0.8148902566E-06
 56.48726654   -0.8578396091E-06
 56.61405945   -0.9389278830E-06
 56.74085236   -0.1058505291E-05
 56.86764526   -0.1216165629E-05
 56.99443817   -0.1410718255E-05
 57.12122726   -0.1640160349E-05
 57.24802017   -0.1901654514E-05
 57.37481308   -0.2191516387E-05
 57.50160599   -0.2505198381E-05
 57.62839890   -0.2837296734E-05
 57.75519180   -0.3181562761E-05
 57.88198471   -0.3530941285E-05
 58.00877762   -0.3877623840E-05
 58.13557053   -0.4213131433E-05
 58.26236343   -0.4528422323E-05
 58.38915634   -0.4814033218E-05
 58.51594925   -0.5060245712E-05
 58.64274216   -0.5257285011E-05
 58.76953506   -0.5395542757E-05
 58.89632797   -0.5465830327E-05
 59.02311707   -0.5459638487E-05
 59.14990997   -0.5369420251E-05
 59.27670288   -0.5188862360E-05
 59.40349579   -0.4913161774E-05
 59.53028870   -0.4539282600E-05
 59.65708160   -0.4066178462E-05
 59.78387451   -0.3494986231E-05
 59.91066742   -0.2829170171E-05
 60.03746033   -0.2074599934E-05
 60.16425323   -0.1239580115E-05
 60.29104614   -0.3347985569E-06
 60.41783905   0.6267941330E-06
 60.54463196   0.1630183988E-05
 60.67142487   0.2658560561E-05
 60.79821777   0.3693661483E-05
 60.92500687   0.4716164312E-05
 61.05179977   0.5706165211E-05
 61.17859268   0.6643653251E-05
 61.30538559   0.7509056559E-05
 61.43217850   0.8283782336E-05
 61.55897141   0.8950750271E-05
 61.68576431   0.9494906408E-05
 61.81255722   0.9903718819E-05
 61.93935013   0.1016757324E-04
 62.06614304   0.1028014412E-04
 62.19293594   0.1023865752E-04
 62.31972885   0.1004405112E-04
 62.44652176   0.9701037015E-05
 62.57331467   0.9218061678E-05
 62.70010757   0.8607130439E-05
 62.82689667   0.7883535545E-05
 62.95368958   0.7065479167E-05
 63.08048248   0.6173581369E-05
 63.20727539   0.5230325314E-05
 63.33406830   0.4259418347E-05
 63.46086121   0.3285117600E-05
 63.58765411   0.2331520136E-05
 63.71444702   0.1421849333E-05
 63.84123993   0.5777637853E-06
 63.96803284   -0.1812968122E-06
 64.09482574   -0.8386917898E-06
 64.22161865   -0.1381089419E-05
 64.34841156   -0.1798861717E-05
 64.47520447   -0.2086367203E-05
 64.60199738   -0.2242104301E-05
 64.72879028   -0.2268734306E-05
 64.85558319   -0.2172959057E-05
 64.98237610   -0.1965278216E-05
 65.10916901   -0.1659611485E-05
 65.23596191   -0.1272817940E-05
 65.36275482   -0.8241149203E-06
 65.48954773   -0.3344246124E-06
 65.61633301   0.1743286759E-06
 65.74312592   0.6799468224E-06
 65.86991882   0.1160689862E-05
 65.99671173   0.1595977892E-05
 66.12350464   0.1967041499E-05
 66.25029755   0.2257500910E-05
 66.37709045   0.2453841262E-05
 66.50388336   0.2545792768E-05
 66.63067627   0.2526563776E-05
 66.75746918   0.2392968327E-05
 66.88426208   0.2145399321E-05
 67.01105499   0.1787694828E-05
 67.13784790   0.1326854772E-05
 67.26464081   0.7726862918E-06
 67.39143372   0.1373356184E-06
 67.51822662   -0.5652474329E-06
 67.64501953   -0.1319871444E-05
 67.77181244   -0.2110707555E-05
 67.89860535   -0.2921868145E-05
 68.02539825   -0.3737965926E-05
 68.15219116   -0.4544629519E-05
 68.27898407   -0.5328927728E-05
 68.40577698   -0.6079708783E-05
 68.53256989   -0.6787854090E-05
 68.65936279   -0.7446422842E-05
 68.78615570   -0.8050651559E-05
 68.91294861   -0.8597908163E-05
 69.03974152   -0.9087488252E-05
 69.16653442   -0.9520358617E-05
 69.29332733   -0.9898836652E-05
 69.42011261   -0.1022618289E-04
 69.54690552   -0.1050620358E-04
 69.67369843   -0.1074284319E-04
 69.80049133   -0.1093974151E-04
 69.92728424   -0.1109987625E-04
 70.05407715   -0.1122524009E-04
 70.18087006   -0.1131660247E-04
 70.30766296   -0.1137331401E-04
 70.43445587   -0.1139324013E-04
 70.56124878   -0.1137277559E-04
 70.68804169   -0.1130695182E-04
 70.81483459   -0.1118962155E-04
 70.94162750   -0.1101374164E-04
 71.06842041   -0.1077170782E-04
 71.19521332   -0.1045575209E-04
 71.32200623   -0.1005835202E-04
 71.44879913   -0.9572691852E-05
 71.57559204   -0.8993079973E-05
 71.70238495   -0.8315369087E-05
 71.82917786   -0.7537319561E-05
 71.95597076   -0.6658924121E-05
 72.08276367   -0.5682648407E-05
 72.20955658   -0.4613596047E-05
 72.33634949   -0.3459591198E-05
 72.46314240   -0.2231161488E-05
 72.58993530   -0.9414380884E-06
 72.71672821   0.3940344016E-06
 72.84352112   0.1757571567E-05
 72.97031403   0.3129689276E-05
 73.09710693   0.4489505500E-05
 73.22389221   0.5815184977E-05
 73.35068512   0.7084422123E-05
 73.47747803   0.8274936590E-05
 73.60427094   0.9364979633E-05
 73.73106384   0.1033381704E-04
 73.85785675   0.1116219846E-04
 73.98464966   0.1183279346E-04
 74.11144257   0.1233057628E-04
 74.23823547   0.1264316052E-04
 74.36502838   0.1276107741E-04
 74.49182129   0.1267798871E-04
 74.61861420   0.1239083940E-04
 74.74540710   0.1189994873E-04
 74.87220001   0.1120903471E-04
 74.99899292   0.1032519049E-04
 75.12578583   0.9258793398E-05
 75.25257874   0.8023388546E-05
 75.37937164   0.6635504633E-05
 75.50616455   0.5114446139E-05
 75.63295746   0.3482048669E-05
 75.75975037   0.1762403599E-05
 75.88654327   -0.1845143238E-07
 76.01333618   -0.1832844873E-05
 76.14012909   -0.3651827683E-05
 76.26692200   -0.5445535407E-05
 76.39371490   -0.7183557500E-05
 76.52050781   -0.8835359040E-05
 76.64730072   -0.1037066886E-04
 76.77409363   -0.1175991019E-04
 76.90088654   -0.1297463587E-04
 77.02767181   -0.1398796849E-04
 77.15446472   -0.1477502883E-04
 77.28125763   -0.1531337875E-04
 77.40805054   -0.1558344593E-04
 77.53484344   -0.1556893039E-04
 77.66163635   -0.1525718108E-04
 77.78842926   -0.1463953595E-04
 77.91522217   -0.1371159397E-04
 78.04201508   -0.1247345426E-04
 78.16880798   -0.1092988350E-04
 78.29560089   -0.9090363164E-05
 78.42239380   -0.6969096376E-05
 78.54918671   -0.4584918315E-05
 78.67597961   -0.1961062253E-05
 78.80277252   0.8750897678E-06
 78.92956543   0.3892412224E-05
 79.05635834   0.7056499271E-05
 79.18315125   0.1033024000E-04
 79.30994415   0.1367441382E-04
 79.43673706   0.1704836541E-04
 79.56352997   0.2041073094E-04
 79.69032288   0.2372015479E-04
 79.81711578   0.2693602255E-04
 79.94390869   0.3001915866E-04
 80.07070160   0.3293249392E-04
 80.19749451   0.3564171129E-04
 80.32428741   0.3811575880E-04
 80.45108032   0.4032734796E-04
 80.57787323   0.4225330849E-04
 80.70465851   0.4387487206E-04
 80.83145142   0.4517784328E-04
 80.95824432   0.4615268335E-04
 81.08503723   0.4679447011E-04
 81.21183014   0.4710278881E-04
 81.33862305   0.4708152483E-04
 81.46541595   0.4673860167E-04
 81.59220886   0.4608565359E-04
 81.71900177   0.4513764725E-04
 81.84579468   0.4391247057E-04
 81.97258759   0.4243053627E-04
 82.09938049   0.4071434887E-04
 82.22617340   0.3878809002E-04
 82.35296631   0.3667722194E-04
 82.47975922   0.3440807632E-04
 82.60655212   0.3200754873E-04
 82.73334503   0.2950274575E-04
 82.86013794   0.2692066482E-04
 82.98693085   0.2428795960E-04
 83.11372375   0.2163065255E-04
 83.24051666   0.1897395305E-04
 83.36730957   0.1634200089E-04
 83.49410248   0.1375765260E-04
 83.62089539   0.1124232313E-04
 83.74768829   0.8815752153E-05
 83.87448120   0.6495803063E-05
 84.00127411   0.4298273780E-05
 84.12806702   0.2236694172E-05
 84.25485992   0.3221411760E-06
 84.38165283   -0.1436928414E-05
 84.50843811   -0.3034885594E-05
 84.63523102   -0.4468975931E-05
 84.76202393   -0.5739449080E-05
 84.88881683   -0.6849605143E-05
 85.01560974   -0.7805756468E-05
 85.14240265   -0.8617148524E-05
 85.26919556   -0.9295822565E-05
 85.39598846   -0.9856413271E-05
 85.52278137   -0.1031582178E-04
 85.64957428   -0.1069286736E-04
 85.77636719   -0.1100787449E-04
 85.90316010   -0.1128215808E-04
 86.02995300   -0.1153749963E-04
 86.15674591   -0.1179557330E-04
 86.28353882   -0.1207739933E-04
 86.41033173   -0.1240269648E-04
 86.53712463   -0.1278940272E-04
 86.66391754   -0.1325311860E-04
 86.79071045   -0.1380667800E-04
 86.91750336   -0.1445972066E-04
 87.04429626   -0.1521847935E-04
 87.17108917   -0.1608559614E-04
 87.29788208   -0.1706002695E-04
 87.42467499   -0.1813713061E-04
 87.55146790   -0.1930879080E-04
 87.67826080   -0.2056375342E-04
 87.80505371   -0.2188800863E-04
 87.93184662   -0.2326528192E-04
 88.05863953   -0.2467760532E-04
 88.18543243   -0.2610596675E-04
 88.31221771   -0.2753096487E-04
 88.43901062   -0.2893349665E-04
 88.56580353   -0.3029544314E-04
 88.69259644   -0.3160029155E-04
 88.81938934   -0.3283375918E-04
 88.94618225   -0.3398421904E-04
 89.07297516   -0.3504315828E-04
 89.19976807   -0.3600540003E-04
 89.32656097   -0.3686929995E-04
 89.45335388   -0.3763673521E-04
 89.58014679   -0.3831303547E-04
 89.70693970   -0.3890672451E-04
 89.83373260   -0.3942910917E-04
 89.96052551   -0.3989389006E-04
 90.08731842   -0.4031649951E-04
 90.21411133   -0.4071349395E-04
 90.34090424   -0.4110186637E-04
 90.46769714   -0.4149828601E-04
 90.59449005   -0.4191838889E-04
 90.72128296   -0.4237615212E-04
 90.84807587   -0.4288324635E-04
 90.97486877   -0.4344847912E-04
 91.10166168   -0.4407741653E-04
 91.22845459   -0.4477202674E-04
 91.35524750   -0.4553054532E-04
 91.48204041   -0.4634740981E-04
 91.60883331   -0.4721337245E-04
 91.73562622   -0.4811576218E-04
 91.86241913   -0.4903881927E-04
 91.98921204   -0.4996424104E-04
 92.11599731   -0.5087173849E-04
 92.24279022   -0.5173975296E-04
 92.36958313   -0.5254614371E-04
 92.49637604   -0.5326894461E-04
 92.62316895   -0.5388709542E-04
 92.74996185   -0.5438113294E-04
 92.87675476   -0.5473382771E-04
 93.00354767   -0.5493072968E-04
 93.13034058   -0.5496059384E-04
 93.25713348   -0.5481571498E-04
 93.38392639   -0.5449213131E-04
 93.51071930   -0.5398965004E-04
 93.63751221   -0.5331179273E-04
 93.76430511   -0.5246559158E-04
 93.89109802   -0.5146123294E-04
 94.01789093   -0.5031162436E-04
 94.14468384   -0.4903187801E-04
 94.27147675   -0.4763872130E-04
 94.39826965   -0.4614989666E-04
 94.52506256   -0.4458350668E-04
 94.65185547   -0.4295743929E-04
 94.77864838   -0.4128880391E-04
 94.90544128   -0.3959342939E-04
 95.03223419   -0.3788547110E-04
 95.15902710   -0.3617702532E-04
 95.28582001   -0.3447796553E-04
 95.41261292   -0.3279576777E-04
 95.53940582   -0.3113547427E-04
 95.66619873   -0.2949980990E-04
 95.79299164   -0.2788927486E-04
 95.91977692   -0.2630240124E-04
 96.04656982   -0.2473601671E-04
 96.17336273   -0.2318554834E-04
 96.30015564   -0.2164538819E-04
 96.42694855   -0.2010919889E-04
 96.55374146   -0.1857022107E-04
 96.68053436   -0.1702156260E-04
 96.80732727   -0.1545642772E-04
 96.93412018   -0.1386831536E-04
 97.06091309   -0.1225113920E-04
 97.18770599   -0.1059934584E-04
 97.31449890   -0.8907952179E-05
 97.44129181   -0.7172557162E-05
 97.56808472   -0.5389350918E-05
 97.69487762   -0.3555080184E-05
 97.82167053   -0.1667010793E-05
 97.94846344   0.2770798346E-06
 98.07525635   0.2278891998E-05
 98.20204926   0.4339577117E-05
 98.32884216   0.6459667020E-05
 98.45563507   0.8638952750E-05
 98.58242798   0.1087632154E-04
 98.70922089   0.1316956059E-04
 98.83601379   0.1551512833E-04
 98.96280670   0.1790791794E-04
 99.08959961   0.2034101090E-04
 99.21639252   0.2280544686E-04
 99.34318542   0.2529004269E-04
 99.46997833   0.2778125781E-04
 99.59677124   0.3026311970E-04
 99.72355652   0.3271725291E-04
 99.85034943   0.3512297553E-04
 99.97714233   0.3745752110E-04
 100.1039352   0.3969636600E-04
 100.2307281   0.4181364056E-04
 100.3575211   0.4378267477E-04
 100.4843140   0.4557662032E-04
 100.6111069   0.4716915282E-04
 100.7378998   0.4853521386E-04
 100.8646927   0.4965179687E-04
 100.9914856   0.5049871470E-04
 101.1182785   0.5105936361E-04
 101.2450714   0.5132140359E-04
 101.3718643   0.5127734403E-04
 101.4986572   0.5092505671E-04
 101.6254501   0.5026808140E-04
 101.7522430   0.4931586591E-04
 101.8790359   0.4808375161E-04
 102.0058289   0.4659285332E-04
 102.1326218   0.4486975740E-04
 102.2594147   0.4294597966E-04
 102.3862076   0.4085733235E-04
 102.5130005   0.3864311293E-04
 102.6397934   0.3634518725E-04
 102.7665863   0.3400694550E-04
 102.8933792   0.3167222894E-04
 103.0201721   0.2938420221E-04
 103.1469650   0.2718425094E-04
 103.2737579   0.2511089406E-04
 103.4005508   0.2319879422E-04
 103.5273361   0.2147782652E-04
 103.6541290   0.1997233994E-04
 103.7809219   0.1870050255E-04
 103.9077148   0.1767386129E-04
 104.0345078   0.1689706187E-04
 104.1613007   0.1636777961E-04
 104.2880936   0.1607682316E-04
 104.4148865   0.1600845098E-04
 104.5416794   0.1614085886E-04
 104.6684723   0.1644684380E-04
 104.7952652   0.1689459350E-04
 104.9220581   0.1744862311E-04
 105.0488510   0.1807080116E-04
 105.1756439   0.1872141911E-04
 105.3024368   0.1936032459E-04
 105.4292297   0.1994803461E-04
 105.5560226   0.2044684334E-04
 105.6828156   0.2082186074E-04
 105.8096085   0.2104197665E-04
 105.9364014   0.2108071385E-04
 106.0631943   0.2091695751E-04
 106.1899872   0.2053553180E-04
 106.3167801   0.1992762191E-04
 106.4435730   0.1909100865E-04
 106.5703659   0.1803016494E-04
 106.6971588   0.1675614112E-04
 106.8239517   0.1528630128E-04
 106.9507446   0.1364391937E-04
 107.0775375   0.1185760084E-04
 107.2043304   0.9960604075E-05
 107.3311157   0.7990046470E-05
 107.4579086   0.5986030828E-05
 107.5847015   0.3990693585E-05
 107.7114944   0.2047233693E-05
 107.8382874   0.1989124172E-06
 107.9650803   -0.1511943879E-05
 108.0918732   -0.3044897994E-05
 108.2186661   -0.4362313575E-05
 108.3454590   -0.5430195870E-05
 108.4722519   -0.6218938779E-05
 108.5990448   -0.6703973668E-05
 108.7258377   -0.6866290732E-05
 108.8526306   -0.6692851002E-05
 108.9794235   -0.6176862826E-05
 109.1062164   -0.5317913292E-05
 109.2330093   -0.4121984603E-05
 109.3598022   -0.2601319238E-05
 109.4865952   -0.7741753052E-06
 109.6133881   0.1335552497E-05
 109.7401810   0.3698816499E-05
 109.8669739   0.6282001777E-05
 109.9937668   0.9047605090E-05
 110.1205597   0.1195496407E-04
 110.2473526   0.1496107325E-04
 110.3741455   0.1802140105E-04
 110.5009384   0.2109073648E-04
 110.6277313   0.2412406502E-04
 110.7545242   0.2707737985E-04
 110.8813171   0.2990847315E-04
 111.0081024   0.3257768185E-04
 111.1348953   0.3504856795E-04
 111.2616882   0.3728848969E-04
 111.3884811   0.3926911450E-04
 111.5152740   0.4096680277E-04
 111.6420670   0.4236290988E-04
 111.7688599   0.4344394256E-04
 111.8956528   0.4420164623E-04
 112.0224457   0.4463293226E-04
 112.1492386   0.4473976514E-04