 -4.500000000   0.3382550388E-18
 -4.373207569   0.3382523246E-18
 -4.246414661   0.3382460173E-18
 -4.119622231   0.3382366857E-18
 -3.992829323   0.3382251827E-18
 -3.866036654   0.3382119737E-18
 -3.739243984   0.3381984286E-18
 -3.612451553   0.3381853488E-18
 -3.485658884   0.3381736132E-18
 -3.358866215   0.3381632993E-18
 -3.232073545   0.3381545105E-18
 -3.105280876   0.3381473244E-18
 -2.978488207   0.3381416375E-18
 -2.851695538   0.3381361057E-18
 -2.724902868   0.3381297468E-18
 -2.598110199   0.3381218627E-18
 -2.471317530   0.3381102305E-18
 -2.344524860   0.3380933508E-18
 -2.217732191   0.3380705775E-18
 -2.090939522   0.3380410575E-18
 -1.964146972   0.3380044289E-18
 -1.837354302   0.3379613897E-18
 -1.710561633   0.3379127928E-18
 -1.583768964   0.3378601893E-18
 -1.456976295   0.3378054661E-18
 -1.330183744   0.3377510014E-18
 -1.203391075   0.3376978551E-18
 -1.076598406   0.3376492582E-18
 -0.9498057365   0.3376052367E-18
 -0.8230130672   0.3375663592E-18
 -0.6962204576   0.3375320312E-18
 -0.5694277883   0.3375023561E-18
 -0.4426351190   0.3374788849E-18
 -0.3158424795   0.3374640990E-18
 -0.1890498251   0.3374632718E-18
 -0.6225717068E-01   0.3374815732E-18
 0.6453548372E-01   0.3375216398E-18
 0.1913281381   0.3375781724E-18
 0.3181207776   0.3376317582E-18
 0.4449134469   0.3376488188E-18
 0.5717061162   0.3375809900E-18
 0.6984987259   0.3373757458E-18
 0.8252913952   0.3369954495E-18
 0.9520840645   0.3364451418E-18
 1.078876734   0.3357984416E-18
 1.205669403   0.3352211212E-18
 1.332461953   0.3349619035E-18
 1.459254622   0.3353159885E-18
 1.586047292   0.3365401641E-18
 1.712839961   0.3387249549E-18
 1.839632630   0.3416578272E-18
 1.966425300   0.3447020845E-18
 2.093217850   0.3467564909E-18
 2.220010519   0.3463422285E-18
 2.346803188   0.3418521888E-18
 2.473595858   0.3319606855E-18
 2.600388527   0.3161405719E-18
 2.727181196   0.2951680279E-18
 2.853973866   0.2714696393E-18
 2.980766535   0.2491538057E-18
 3.107559204   0.2336089623E-18
 3.234351873   0.2306498012E-18
 3.361144543   0.2453049343E-18
 3.487936974   0.2804541133E-18
 3.614729643   0.3356045970E-18
 3.741522312   0.4060868475E-18
 3.868314981   0.4828596515E-18
 3.995107651   0.5529969161E-18
 4.121900558   0.6007728520E-18
 4.248692989   0.6092184177E-18
 4.375485420   0.5620369145E-18
 4.502278328   0.4459332750E-18
 4.629070759   0.2535284279E-18
 4.755863667   -0.1294572313E-19
 4.882656097   -0.3372343755E-18
 5.009449005   -0.6845995421E-18
 5.136241436   -0.9988022883E-18
 5.263034344   -0.1202804776E-17
 5.389826775   -0.1205767944E-17
 5.516619682   -0.9182820459E-18
 5.643412113   -0.2759388962E-18
 5.770205021   0.7315553801E-18
 5.896997452   0.2031893901E-17
 6.023790359   0.3451199761E-17
 6.150582790   0.4714314896E-17
 6.277375221   0.5471978423E-17
 6.404168129   0.5357168236E-17
 6.530960560   0.4064946683E-17
 6.657753468   0.1441495910E-17
 6.784545898   -0.2438749303E-17
 6.911338806   -0.7231199680E-17
 7.038131237   -0.1233367156E-16
 7.164924145   -0.1696188109E-16
 7.291716576   -0.2028090525E-16
 7.418509483   -0.2156899752E-16
 7.545301914   -0.2037709643E-16
 7.672094822   -0.1664223534E-16
 7.798887253   -0.1071862706E-16
 7.925679684   -0.3306718192E-17
 8.052472115   0.4714719388E-17
 8.179265022   0.1252076327E-16
 8.306057930   0.1957981509E-16
 8.432850838   0.2582933336E-16
 8.559642792   0.3171771450E-16
 8.686435699   0.3806084646E-16
 8.813228607   0.4569792712E-16
 8.940021515   0.5498086228E-16
 9.066813469   0.6518881367E-16
 9.193606377   0.7401350732E-16
 9.320399284   0.7729988928E-16
 9.447192192   0.6923575842E-16
 9.573984146   0.4314859949E-16
 9.700777054   -0.7021305081E-17
 9.827569962   -0.8464706630E-16
 9.954361916   -0.1880029199E-15
 10.08115482   -0.3079746416E-15
 10.20794773   -0.4265180143E-15
 10.33474064   -0.5165655840E-15
 10.46153259   -0.5440099279E-15
 10.58832550   -0.4721425705E-15
 10.71511841   -0.2684944624E-15
 10.84191132   0.8654466494E-16
 10.96870327   0.5905600000E-15
 11.09549618   0.1211150177E-14
 11.22228909   0.1881206389E-14
 11.34908199   0.2499381834E-14
 11.47587395   0.2937186271E-14
 11.60266685   0.3053176845E-14
 11.72945976   0.2713460094E-14
 11.85625172   0.1816313925E-14
 11.98304462   0.3174999506E-15
 12.10983753   -0.1747986741E-14
 12.23663044   -0.4252144359E-14
 12.36342239   -0.6971945977E-14
 12.49021530   -0.9601424236E-14
 12.61700821   -0.1177815153E-13
 12.74380112   -0.1312205315E-13
 12.87059307   -0.1328219659E-13
 12.99738598   -0.1198549079E-13
 13.12417889   -0.9080382930E-14
 13.25097084   -0.4568961786E-14
 13.37776375   0.1377584210E-14
 13.50455666   0.8422755020E-14
 13.63134956   0.1608725123E-13
 13.75814152   0.2378667907E-13
 13.88493443   0.3087838280E-13
 14.01172733   0.3671023175E-13
 14.13852024   0.4066431030E-13
 14.26531219   0.4219052814E-13
 14.39210510   0.4082835686E-13
 14.51889801   0.3621872564E-13
 14.64569092   0.2811186817E-13
 14.77248287   0.1637936070E-13
 14.89927578   0.1038843346E-14
 15.02606869   -0.1770235163E-13
 15.15286064   -0.3938340336E-13
 15.27965355   -0.6321205630E-13
 15.40644646   -0.8798629956E-13
 15.53323936   -0.1120368446E-12
 15.66003132   -0.1332159480E-12
 15.78682423   -0.1489582519E-12
 15.91361713   -0.1564338123E-12
 16.04040909   -0.1528021687E-12
 16.16720200   -0.1355602371E-12
 16.29399490   -0.1029573291E-12
 16.42078781   -0.5443193300E-13
 16.54758072   0.8990961662E-14
 16.67437363   0.8441133941E-13
 16.80116463   0.1669427671E-12
 16.92795753   0.2498331674E-12
 17.05475044   0.3248503625E-12
 17.18154335   0.3829313169E-12
 17.30833626   0.4150586396E-12
 17.43512917   0.4132904956E-12
 17.56192207   0.3718402810E-12
 17.68871498   0.2880834677E-12
 17.81550598   0.1633647373E-12
 17.94229889   0.3490645222E-14
 18.06909180   -0.1811790057E-12
 18.19588470   -0.3760897030E-12
 18.32267761   -0.5633030934E-12
 18.44947052   -0.7227170251E-12
 18.57626343   -0.8336122591E-12
 18.70305443   -0.8764155851E-12
 18.82984734   -0.8345514492E-12
 18.95664024   -0.6962553364E-12
 19.08343315   -0.4562269074E-12
 19.21022606   -0.1170188485E-12
 19.33701897   0.3099322556E-12
 19.46381187   0.8037095837E-12
 19.59060478   0.1333833109E-11
 19.71739578   0.1860764147E-11
 19.84418869   0.2337079748E-11
 19.97098160   0.2709393690E-11
 20.09777451   0.2921093055E-11
 20.22456741   0.2915919676E-11
 20.35136032   0.2642367661E-11
 20.47815323   0.2058781531E-11
 20.60494423   0.1138925109E-11
 20.73173714   -0.1223387440E-12
 20.85853004   -0.1703727437E-11
 20.98532295   -0.3553161237E-11
 21.11211586   -0.5584960446E-11
 21.23890877   -0.7679244393E-11
 21.36570168   -0.9684085998E-11
 21.49249458   -0.1142079660E-10
 21.61928558   -0.1269251631E-10
 21.74607849   -0.1329596936E-10
 21.87287140   -0.1303595773E-10
 21.99966431   -0.1174182366E-10
 22.12645721   -0.9284883626E-11
 22.25325012   -0.5595600372E-11
 22.38004303   -0.6791458671E-12
 22.50683403   0.5371973266E-11
 22.63362694   0.1236949692E-10
 22.76041985   0.2002627751E-10
 22.88721275   0.2795919919E-10
 23.01400566   0.3569869747E-10
 23.14079857   0.4270498191E-10
 23.26759148   0.4839074974E-10
 23.39438438   0.5214984000E-10
 23.52117538   0.5339091669E-10
 23.64796829   0.5157487284E-10
 23.77476120   0.4625453146E-10
 23.90155411   0.3711465510E-10
 24.02834702   0.2401028855E-10
 24.15513992   0.7001145757E-11
 24.28193283   -0.1362038520E-10
 24.40872383   -0.3730994333E-10
 24.53551674   -0.6326297125E-10
 24.66230965   -0.9041940807E-10
 24.78910255   -0.1174830094E-09
 24.91589546   -0.1429559665E-09
 25.04268837   -0.1651892928E-09
 25.16948128   -0.1824481122E-09
 25.29627419   -0.1929901933E-09
 25.42306519   -0.1951553225E-09
 25.54985809   -0.1874621292E-09
 25.67665100   -0.1687082557E-09
 25.80344391   -0.1380695280E-09
 25.93023682   -0.9519273564E-10
 26.05702972   -0.4027745845E-10
 26.18382263   0.2585838835E-10
 26.31061363   0.1017337742E-09
 26.43740654   0.1851850062E-09
 26.56419945   0.2733750448E-09
 26.69099236   0.3628342626E-09
 26.81778526   0.4495351591E-09
 26.94457817   0.5290015648E-09
 27.07137108   0.5964518324E-09
 27.19816399   0.6469747516E-09
 27.32495499   0.6757334692E-09
 27.45174789   0.6781942785E-09
 27.57854080   0.6503703132E-09
 27.70533371   0.5890744559E-09
 27.83212662   0.4921680286E-09
 27.95891953   0.3587952158E-09
 28.08571243   0.1895905655E-09
 28.21250343   -0.1315573605E-10
 28.33929634   -0.2453853509E-09
 28.46608925   -0.5012252280E-09
 28.59288216   -0.7730173168E-09
 28.71967506   -0.1051431608E-08
 28.84646797   -0.1325667243E-08
 28.97326088   -0.1583742915E-08
 29.10005379   -0.1812871409E-08
 29.22684479   -0.1999913568E-08
 29.35363770   -0.2131894883E-08
 29.48043060   -0.2196571813E-08
 29.60722351   -0.2183024650E-08
 29.73401642   -0.2082253259E-08
 29.86080933   -0.1887751955E-08
 29.98760223   -0.1596031751E-08
 30.11439323   -0.1207064670E-08
 30.24118614   -0.7246238054E-09
 30.36797905   -0.1564945395E-09
 30.49477196   0.4854620594E-09
 30.62156487   0.1185406773E-08
 30.74835777   0.1923790682E-08
 30.87515068   0.2677789990E-08
 31.00194168   0.3421905204E-08
 31.12873459   0.4128705822E-08
 31.25552750   0.4769694417E-08
 31.38232040   0.5316270091E-08
 31.50911331   0.5740744768E-08
 31.63590622   0.6017390142E-08
 31.76269913   0.6123454188E-08
 31.88949203   0.6040124845E-08
 32.01628494   0.5753399979E-08
 32.14307785   0.5254817470E-08
 32.26987076   0.4542037857E-08
 32.39666367   0.3619235356E-08
 32.52345276   0.2497297924E-08
 32.65024567   0.1193822485E-08
 32.77703857   -0.2670902943E-09
 32.90383148   -0.1855239407E-08
 33.03062439   -0.3534905924E-08
 33.15741730   -0.5265599512E-08
 33.28421021   -0.7002938673E-08
 33.41100311   -0.8699656995E-08
 33.53779602   -0.1030668972E-07
 33.66458893   -0.1177432996E-07
 33.79138184   -0.1305342590E-07
 33.91817474   -0.1409659323E-07
 34.04496765   -0.1485943368E-07
 34.17176056   -0.1530172256E-07
 34.29855347   -0.1538856331E-07
 34.42534256   -0.1509148895E-07
 34.55213547   -0.1438947361E-07
 34.67892838   -0.1326987054E-07
 34.80572128   -0.1172921316E-07
 34.93251419   -0.9773888365E-08
 35.05930710   -0.7420633441E-08
 35.18610001   -0.4696843359E-08
 35.31289291   -0.1640650282E-08
 35.43968582   0.1699246521E-08
 35.56647873   0.5264029213E-08
 35.69327164   0.8985512778E-08
 35.82006454   0.1278718642E-07
 35.94685745   0.1658559157E-07
 36.07365036   0.2029198143E-07
 36.20044327   0.2381429098E-07
 36.32723236   0.2705933078E-07
 36.45402527   0.2993519388E-07
 36.58081818   0.3235382451E-07
 36.70761108   0.3423362926E-07
 36.83440399   0.3550210792E-07
 36.96119690   0.3609838117E-07
 37.08798981   0.3597553189E-07
 37.21478271   0.3510267277E-07
 37.34157562   0.3346666588E-07
 37.46836853   0.3107338742E-07
 37.59516144   0.2794848086E-07
 37.72195435   0.2413753997E-07
 37.84874725   0.1970569130E-07
 37.97554016   0.1473654443E-07
 38.10232925   0.9330493711E-08
 38.22912216   0.3602420140E-08
 38.35591507   -0.2321186576E-08
 38.48270798   -0.8305597987E-08
 38.60950089   -0.1421167806E-07
 38.73629379   -0.1990000165E-07
 38.86308670   -0.2523520948E-07
 38.98987961   -0.3009044747E-07
 39.11667252   -0.3435172502E-07
 39.24346542   -0.3792208503E-07
 39.37025833   -0.4072547455E-07
 39.49705124   -0.4271008081E-07
 39.62384415   -0.4385111296E-07
 39.75063705   -0.4415281296E-07
 39.87742996   -0.4364969541E-07
 40.00421906   -0.4240680340E-07
 40.13101196   -0.4051904767E-07
 40.25780487   -0.3810946581E-07
 40.38459778   -0.3532650794E-07
 40.51139069   -0.3234021406E-07
 40.63818359   -0.2933744270E-07
 40.76497650   -0.2651618836E-07
 40.89176941   -0.2407896460E-07
 41.01856232   -0.2222559381E-07
 41.14535522   -0.2114530950E-07
 41.27214813   -0.2100849450E-07
 41.39894104   -0.2195819526E-07
 41.52573395   -0.2410160427E-07
 41.65252686   -0.2750173955E-07
 41.77931976   -0.3216959499E-07
 41.90610886   -0.3805694959E-07
 42.03290176   -0.4505012896E-07
 42.15969467   -0.5296490002E-07
 42.28648758   -0.6154290588E-07
 42.41328049   -0.7044957329E-07
 42.54007339   -0.7927403090E-07
 42.66686630   -0.8753096381E-07
 42.79365921   -0.9466470630E-07
 42.92045212   -0.1000554875E-06
 43.04724503   -0.1030280998E-06
 43.17403793   -0.1028627139E-06
 43.30083084   -0.9880796625E-07
 43.42762375   -0.9009595914E-07
 43.55441666   -0.7595919982E-07
 43.68120956   -0.5564877270E-07
 43.80799866   -0.2845378155E-07
 43.93479156   0.6278680686E-08
 44.06158447   0.4912339691E-07
 44.18837738   0.1005572869E-06
 44.31517029   0.1609406866E-06
 44.44196320   0.2305001630E-06
 44.56875610   0.3093133216E-06
 44.69554901   0.3972964748E-06
 44.82234192   0.4941951488E-06
 44.94913483   0.5995780157E-06
 45.07592773   0.7128348898E-06
 45.20272064   0.8331783192E-06
 45.32951355   0.9596494692E-06
 45.45630646   0.1091127615E-05
 45.58309937   0.1226342988E-05
 45.70988846   0.1363894285E-05
 45.83668137   0.1502267537E-05
 45.96347427   0.1639858510E-05
 46.09026718   0.1774996122E-05
 46.21706009   0.1905968020E-05
 46.34385300   0.2031046051E-05
 46.47064590   0.2148510703E-05
 46.59743881   0.2256678272E-05
 46.72423172   0.2353922127E-05
 46.85102463   0.2438696356E-05
 46.97781754   0.2509555770E-05
 47.10461044   0.2565174555E-05
 47.23140335   0.2604361953E-05
 47.35819626   0.2626075911E-05
 47.48498917   0.2629437176E-05
 47.61177826   0.2613738616E-05
 47.73857117   0.2578453859E-05
 47.86536407   0.2523245257E-05
 47.99215698   0.2447969337E-05
 48.11894989   0.2352684305E-05
 48.24574280   0.2237651415E-05
 48.37253571   0.2103339739E-05
 48.49932861   0.1950428441E-05
 48.62612152   0.1779805871E-05
 48.75291443   0.1592568765E-05
 48.87970734   0.1390017360E-05
 49.00650024   0.1173648457E-05
 49.13329315   0.9451438814E-06
 49.26008606   0.7063560474E-06
 49.38687897   0.4592869800E-06
 49.51366806   0.2060619408E-06
 49.64046097   -0.5110068813E-07
 49.76725388   -0.3099274011E-06
 49.89404678   -0.5681326911E-06
 50.02083969   -0.8234679285E-06
 50.14763260   -0.1073773547E-05
 50.27442551   -0.1317036890E-05
 50.40121841   -0.1551450964E-05
 50.52801132   -0.1775476562E-05
 50.65480423   -0.1987900987E-05
 50.78159714   -0.2187897053E-05
 50.90839005   -0.2375074928E-05
 51.03518295   -0.2549530109E-05
 51.16197586   -0.2711878096E-05
 51.28876877   -0.2863283953E-05
 51.41555786   -0.3005471626E-05
 51.54235077   -0.3140725084E-05
 51.66914368   -0.3271870355E-05
 51.79593658   -0.3402238690E-05
 51.92272949   -0.3535615178E-05
 52.04952240   -0.3676166671E-05
 52.17631531   -0.3828354693E-05
 52.30310822   -0.3996829946E-05
 52.42990112   -0.4186313618E-05
 52.55669403   -0.4401463229E-05
 52.68348694   -0.4646734396E-05
 52.81027985   -0.4926229849E-05
 52.93707275   -0.5243550731E-05
 53.06386566   -0.5601648354E-05
 53.19065857   -0.6002679129E-05
 53.31744766   -0.6447873147E-05
 53.44424057   -0.6937420039E-05
 53.57103348   -0.7470365745E-05
 53.69782639   -0.8044541573E-05
 53.82461929   -0.8656519640E-05
 53.95141220   -0.9301590580E-05
 54.07820511   -0.9973784472E-05
 54.20499802   -0.1066591904E-04
 54.33179092   -0.1136968604E-04
 54.45858383   -0.1207577589E-04
 54.58537674   -0.1277402498E-04
 54.71216965   -0.1345361215E-04
 54.83896255   -0.1410326331E-04
 54.96575546   -0.1471150063E-04
 55.09254837   -0.1526689630E-04
 55.21933746   -0.1575834540E-04
 55.34613037   -0.1617533962E-04
 55.47292328   -0.1650826016E-04
 55.59971619   -0.1674863597E-04
 55.72650909   -0.1688941302E-04
 55.85330200   -0.1692518708E-04
 55.98009491   -0.1685242205E-04
 56.10688782   -0.1666962271E-04
 56.23368073   -0.1637747118E-04
 56.36047363   -0.1597893606E-04
 56.48726654   -0.1547930515E-04
 56.61405945   -0.1488620092E-04
 56.74085236   -0.1420952231E-04
 56.86764526   -0.1346134104E-04
 56.99443817   -0.1265575884E-04
 57.12122726   -0.1180870549E-04
 57.24802017   -0.1093769515E-04
 57.37481308   -0.1006154343E-04
 57.50160599   -0.9200050954E-05
 57.62839890   -0.8373654055E-05
 57.75519180   -0.7603056019E-05
 57.88198471   -0.6908842352E-05
 58.00877762   -0.6311081506E-05
 58.13557053   -0.5828932444E-05
 58.26236343   -0.5480252184E-05
 58.38915634   -0.5281218819E-05
 58.51594925   -0.5245978173E-05
 58.64274216   -0.5386310022E-05
 58.76953506   -0.5711335234E-05
 58.89632797   -0.6227260201E-05
 59.02311707   -0.6937164471E-05
 59.14990997   -0.7840840226E-05
 59.27670288   -0.8934686775E-05
 59.40349579   -0.1021166008E-04
 59.53028870   -0.1166128277E-04
 59.65708160   -0.1326971415E-04
 59.78387451   -0.1501988663E-04
 59.91066742   -0.1689169949E-04
 60.03746033   -0.1886227983E-04
 60.16425323   -0.2090629278E-04
 60.29104614   -0.2299632251E-04
 60.41783905   -0.2510327977E-04
 60.54463196   -0.2719688382E-04
 60.67142487   -0.2924615546E-04
 60.79821777   -0.3121995906E-04
 60.92500687   -0.3308754458E-04
 61.05179977   -0.3481913154E-04
 61.17859268   -0.3638645649E-04
 61.30538559   -0.3776332596E-04
 61.43217850   -0.3892615496E-04
 61.55897141   -0.3985444346E-04
 61.68576431   -0.4053122757E-04
 61.81255722   -0.4094345422E-04
 61.93935013   -0.4108229405E-04
 62.06614304   -0.4094337783E-04
 62.19293594   -0.4052692748E-04
 62.31972885   -0.3983782881E-04
 62.44652176   -0.3888558058E-04
 62.57331467   -0.3768414535E-04
 62.70010757   -0.3625172394E-04
 62.82689667   -0.3461043525E-04
 62.95368958   -0.3278590157E-04
 63.08048248   -0.3080675742E-04
 63.20727539   -0.2870412209E-04
 63.33406830   -0.2651098293E-04
 63.46086121   -0.2426158790E-04
 63.58765411   -0.2199078153E-04
 63.71444702   -0.1973336475E-04
 63.84123993   -0.1752346725E-04
 63.96803284   -0.1539393634E-04
 64.09482574   -0.1337580034E-04
 64.22161865   -0.1149776563E-04
 64.34841156   -0.9785802831E-05
 64.47520447   -0.8262809388E-05
 64.60199738   -0.6948356258E-05
 64.72879028   -0.5858522400E-05
 64.85558319   -0.5005823368E-05
 64.98237610   -0.4399216778E-05
 65.10916901   -0.4044194611E-05
 65.23596191   -0.3942933745E-05
 65.36275482   -0.4094514225E-05
 65.48954773   -0.4495173016E-05
 65.61633301   -0.5138591860E-05
 65.74312592   -0.6016203770E-05
 65.86991882   -0.7117491805E-05
 65.99671173   -0.8430286471E-05
 66.12350464   -0.9941031749E-05
 66.25029755   -0.1163501747E-04
 66.37709045   -0.1349657396E-04
 66.50388336   -0.1550922025E-04
 66.63067627   -0.1765575871E-04
 66.75746918   -0.1991833233E-04
 66.88426208   -0.2227843288E-04
 67.01105499   -0.2471687912E-04
 67.13784790   -0.2721376586E-04
 67.26464081   -0.2974840208E-04
 67.39143372   -0.3229925278E-04
 67.51822662   -0.3484389163E-04
 67.64501953   -0.3735895734E-04
 67.77181244   -0.3982019189E-04
 67.89860535   -0.4220248957E-04
 68.02539825   -0.4448002073E-04
 68.15219116   -0.4662642459E-04
 68.27898407   -0.4861504931E-04
 68.40577698   -0.5041929398E-04
 68.53256989   -0.5201297608E-04
 68.65936279   -0.5337078983E-04
 68.78615570   -0.5446878276E-04
 68.91294861   -0.5528487964E-04
 69.03974152   -0.5579944627E-04
 69.16653442   -0.5599578799E-04
 69.29332733   -0.5586070620E-04
 69.42011261   -0.5538495680E-04
 69.54690552   -0.5456366489E-04
 69.67369843   -0.5339668860E-04
 69.80049133   -0.5188884461E-04
 69.92728424   -0.5005007188E-04
 70.05407715   -0.4789543527E-04
 70.18087006   -0.4544504554E-04
 70.30766296   -0.4272381557E-04
 70.43445587   -0.3976112930E-04
 70.56124878   -0.3659035792E-04
 70.68804169   -0.3324830323E-04
 70.81483459   -0.2977453005E-04
 70.94162750   -0.2621061503E-04
 71.06842041   -0.2259937173E-04
 71.19521332   -0.1898401570E-04
 71.32200623   -0.1540734957E-04
 71.44879913   -0.1191093997E-04
 71.57559204   -0.8534359040E-05
 71.70238495   -0.5314478585E-05
 71.82917786   -0.2284860102E-05
 71.95597076   0.5247646868E-06
 72.08276367   0.3088882977E-05
 72.20955658   0.5386470548E-05
 72.33634949   0.7401125913E-05
 72.46314240   0.9121073163E-05
 72.58993530   0.1053902997E-04
 72.71672821   0.1165195954E-04
 72.84352112   0.1246071315E-04
 72.97031403   0.1296957635E-04
 73.09710693   0.1318574323E-04
 73.22389221   0.1311874075E-04
 73.35068512   0.1277982119E-04
 73.47747803   0.1218134366E-04
 73.60427094   0.1133618662E-04
 73.73106384   0.1025718393E-04
 73.85785675   0.8956632882E-05
 73.98464966   0.7445874417E-05
 74.11144257   0.5734967090E-05
 74.23823547   0.3832460607E-05
 74.36502838   0.1745281111E-05
 74.49182129   -0.5212740462E-06
 74.61861420   -0.2963433417E-05
 74.74540710   -0.5578745004E-05
 74.87220001   -0.8365780559E-05
 74.99899292   -0.1132376110E-04
 75.12578583   -0.1445211910E-04
 75.25257874   -0.1775002420E-04
 75.37937164   -0.2121587931E-04
 75.50616455   -0.2484682045E-04
 75.63295746   -0.2863824375E-04
 75.75975037   -0.3258334254E-04
 75.88654327   -0.3667275814E-04
 76.01333618   -0.4089423237E-04
 76.14012909   -0.4523242387E-04
 76.26692200   -0.4966873894E-04
 76.39371490   -0.5418133878E-04
 76.52050781   -0.5874521230E-04
 76.64730072   -0.6333234342E-04
 76.77409363   -0.6791201304E-04
 76.90088654   -0.7245117013E-04
 77.02767181   -0.7691486098E-04
 77.15446472   -0.8126675675E-04
 77.28125763   -0.8546972094E-04
 77.40805054   -0.8948642790E-04
 77.53484344   -0.9327993030E-04
 77.66163635   -0.9681431402E-04
 77.78842926   -0.1000552365E-03
 77.91522217   -0.1029705527E-03
 78.04201508   -0.1055307002E-03
 78.16880798   -0.1077092238E-03
 78.29560089   -0.1094830805E-03
 78.42239380   -0.1108329161E-03
 78.54918671   -0.1117432621E-03
 78.67597961   -0.1122026079E-03
 78.80277252   -0.1122033791E-03
 78.92956543   -0.1117418651E-03
 79.05635834   -0.1108180368E-03
 79.18315125   -0.1094352992E-03
 79.30994415   -0.1076002009E-03
 79.43673706   -0.1053220331E-03
 79.56352997   -0.1026124737E-03
 79.69032288   -0.9948517254E-04
 79.81711578   -0.9595527081E-04
 79.94390869   -0.9203904483E-04
 80.07070160   -0.8775347669E-04
 80.19749451   -0.8311586134E-04
 80.32428741   -0.7814355195E-04
 80.45108032   -0.7285362517E-04
 80.57787323   -0.6726272113E-04
 80.70465851   -0.6138686877E-04
 80.83145142   -0.5524146036E-04
 80.95824432   -0.4884121518E-04
 81.08503723   -0.4220026676E-04
 81.21183014   -0.3533229392E-04
 81.33862305   -0.2825070987E-04
 81.46541595   -0.2096889148E-04
 81.59220886   -0.1350046205E-04
 81.71900177   -0.5859575595E-05
 81.84579468   0.1938782589E-05
 81.97258759   0.9878485798E-05
 82.09938049   0.1794200216E-04
 82.22617340   0.2611011769E-04
 82.35296631   0.3436176121E-04
 82.47975922   0.4267385521E-04
 82.60655212   0.5102120849E-04
 82.73334503   0.5937652168E-04
 82.86013794   0.6771048356E-04
 82.98693085   0.7599186210E-04
 83.11372375   0.8418777725E-04
 83.24051666   0.9226398834E-04
 83.36730957   0.1001852797E-03
 83.49410248   0.1079158756E-03
 83.62089539   0.1154199708E-03
 83.74768829   0.1226622117E-03
 83.87448120   0.1296082773E-03
 84.00127411   0.1362254261E-03
 84.12806702   0.1424830261E-03
 84.25485992   0.1483531087E-03
 84.38165283   0.1538108627E-03
 84.50843811   0.1588350133E-03
 84.63523102   0.1634082291E-03
 84.76202393   0.1675174135E-03
 84.88881683   0.1711538789E-03
 85.01560974   0.1743134781E-03
 85.14240265   0.1769965747E-03
 85.26919556   0.1792080002E-03
 85.39598846   0.1809568348E-03
 85.52278137   0.1822561899E-03
 85.64957428   0.1831228292E-03
 85.77636719   0.1835767471E-03
 85.90316010   0.1836407318E-03
 86.02995300   0.1833398419E-03
 86.15674591   0.1827008964E-03
 86.28353882   0.1817519224E-03
 86.41033173   0.1805216452E-03
 86.53712463   0.1790390088E-03
 86.66391754   0.1773327094E-03
 86.79071045   0.1754308178E-03
 86.91750336   0.1733604440E-03
 87.04429626   0.1711474615E-03
 87.17108917   0.1688163757E-03
 87.29788208   0.1663901930E-03
 87.42467499   0.1638904214E-03
 87.55146790   0.1613370987E-03
 87.67826080   0.1587489678E-03
 87.80505371   0.1561436075E-03
 87.93184662   0.1535376214E-03
 88.05863953   0.1509469294E-03
 88.18543243   0.1483869710E-03
 88.31221771   0.1458729530E-03
 88.43901062   0.1434200385E-03
 88.56580353   0.1410435507E-03
 88.69259644   0.1387590310E-03
 88.81938934   0.1365822973E-03
 88.94618225   0.1345294877E-03
 89.07297516   0.1326168276E-03
 89.19976807   0.1308605570E-03
 89.32656097   0.1292766683E-03
 89.45335388   0.1278804848E-03
 89.58014679   0.1266863837E-03
 89.70693970   0.1257073454E-03
 89.83373260   0.1249544875E-03
 89.96052551   0.1244366140E-03
 90.08731842   0.1241597201E-03
 90.21411133   0.1241266436E-03
 90.34090424   0.1243366278E-03
 90.46769714   0.1247850159E-03
 90.59449005   0.1254630042E-03
 90.72128296   0.1263575396E-03
 90.84807587   0.1274512178E-03
 90.97486877   0.1287224295E-03
 91.10166168   0.1301455341E-03
 91.22845459   0.1316911512E-03
 91.35524750   0.1333266118E-03
 91.48204041   0.1350164966E-03
 91.60883331   0.1367232326E-03
 91.73562622   0.1384078350E-03
 91.86241913   0.1400306501E-03
 91.98921204   0.1415521110E-03
 92.11599731   0.1429336698E-03
 92.24279022   0.1441385248E-03
 92.36958313   0.1451324206E-03
 92.49637604   0.1458844054E-03
 92.62316895   0.1463674853E-03
 92.74996185   0.1465591922E-03
 92.87675476   0.1464420784E-03
 93.00354767   0.1460040658E-03
 93.13034058   0.1452386059E-03
 93.25713348   0.1441448549E-03
 93.38392639   0.1427275711E-03
 93.51071930   0.1409969409E-03
 93.63751221   0.1389682875E-03
 93.76430511   0.1366616489E-03
 93.89109802   0.1341012539E-03
 94.01789093   0.1313148678E-03
 94.14468384   0.1283331949E-03
 94.27147675   0.1251890644E-03
 94.39826965   0.1219166952E-03
 94.52506256   0.1185509027E-03
 94.65185547   0.1151263496E-03
 94.77864838   0.1116768035E-03
 94.90544128   0.1082344243E-03
 95.03223419   0.1048291306E-03
 95.15902710   0.1014879890E-03
 95.28582001   0.9823475557E-04
 95.41261292   0.9508941002E-04
 95.53940582   0.9206787945E-04
 95.66619873   0.8918176172E-04
 95.79299164   0.8643818728E-04
 95.91977692   0.8383976092E-04
 96.04656982   0.8138458361E-04
 96.17336273   0.7906634710E-04
 96.30015564   0.7687450125E-04
 96.42694855   0.7479450869E-04
 96.55374146   0.7280810678E-04
 96.68053436   0.7089369319E-04
 96.80732727   0.6902666792E-04
 96.93412018   0.6717989891E-04
 97.06091309   0.6532416592E-04
 97.18770599   0.6342866254E-04
 97.31449890   0.6146152737E-04
 97.44129181   0.5939034963E-04
 97.56808472   0.5718276225E-04
 97.69487762   0.5480701293E-04
 97.82167053   0.5223253902E-04
 97.94846344   0.4943057138E-04
 98.07525635   0.4637474194E-04
 98.20204926   0.4304168033E-04
 98.32884216   0.3941158866E-04
 98.45563507   0.3546881271E-04
 98.58242798   0.3120237307E-04
 98.70922089   0.2660645259E-04
 98.83601379   0.2168084939E-04
 98.96280670   0.1643132236E-04
 99.08959961   0.1086989050E-04
 99.21639252   0.5015012448E-05
 99.34318542   -0.1108337187E-05
 99.46997833   -0.7468711829E-05
 99.59677124   -0.1402836460E-04
 99.72355652   -0.2074356598E-04
 99.85034943   -0.2756505455E-04
 99.97714233   -0.3443862806E-04
 100.1039352   -0.4130588059E-04
 100.2307281   -0.4810504106E-04
 100.3575211   -0.5477196464E-04
 100.4843140   -0.6124119682E-04
 100.6111069   -0.6744710845E-04
 100.7378998   -0.7332513633E-04
 100.8646927   -0.7881295460E-04
 100.9914856   -0.8385175170E-04
 101.1182785   -0.8838737995E-04
 101.2450714   -0.9237152699E-04
 101.3718643   -0.9576272714E-04
 101.4986572   -0.9852723451E-04
 101.6254501   -0.1006398379E-03
 101.7522430   -0.1020843993E-03
 101.8790359   -0.1028542174E-03
 102.0058289   -0.1029522973E-03
 102.1326218   -0.1023912118E-03
 102.2594147   -0.1011929489E-03
 102.3862076   -0.9938838048E-04
 102.5130005   -0.9701667295E-04
 102.6397934   -0.9412441432E-04
 102.7665863   -0.9076463903E-04
 102.8933792   -0.8699570026E-04
 103.0201721   -0.8288006211E-04
 103.1469650   -0.7848300447E-04
 103.2737579   -0.7387132064E-04
 103.4005508   -0.6911197124E-04
 103.5273361   -0.6427088374E-04
 103.6541290   -0.5941170093E-04
 103.7809219   -0.5459474778E-04
 103.9077148   -0.4987606371E-04
 104.0345078   -0.4530662773E-04
 104.1613007   -0.4093171083E-04
 104.2880936   -0.3679046495E-04
 104.4148865   -0.3291563917E-04
 104.5416794   -0.2933351971E-04
 104.6684723   -0.2606399903E-04
 104.7952652   -0.2312082870E-04
 104.9220581   -0.2051198317E-04
 105.0488510   -0.1824014726E-04
 105.1756439   -0.1630327279E-04
 105.3024368   -0.1469519157E-04
 105.4292297   -0.1340625477E-04
 105.5560226   -0.1242396320E-04
 105.6828156   -0.1173356577E-04
 105.8096085   -0.1131861063E-04
 105.9364014   -0.1116142812E-04
 106.0631943   -0.1124352275E-04
 106.1899872   -0.1154588881E-04
 106.3167801   -0.1204922955E-04
 106.4435730   -0.1273408270E-04
 106.5703659   -0.1358089230E-04
 106.6971588   -0.1456998780E-04
 106.8239517   -0.1568154767E-04
 106.9507446   -0.1689552482E-04
 107.0775375   -0.1819157114E-04
 107.2043304   -0.1954898653E-04
 107.3311157   -0.2094671436E-04
 107.4579086   -0.2236337968E-04
 107.5847015   -0.2377742931E-04
 107.7114944   -0.2516732638E-04
 107.8382874   -0.2651184877E-04
 107.9650803   -0.2779046554E-04
 108.0918732   -0.2898378261E-04
 108.2186661   -0.3007405212E-04
 108.3454590   -0.3104570715E-04
 108.4722519   -0.3188592018E-04
 108.5990448   -0.3258514698E-04
 108.7258377   -0.3313759225E-04
 108.8526306   -0.3354162982E-04
 108.9794235   -0.3380007911E-04
 109.1062164   -0.3392037979E-04
 109.2330093   -0.3391454447E-04
 109.3598022   -0.3379900227E-04
 109.4865952   -0.3359419134E-04
 109.6133881   -0.3332399865E-04
 109.7401810   -0.3301498509E-04
 109.8669739   -0.3269547233E-04
 109.9937668   -0.3239445869E-04
 110.1205597   -0.3214046592E-04
 110.2473526   -0.3196027319E-04
 110.3741455   -0.3187764014E-04
 110.5009384   -0.3191209180E-04
 110.6277313   -0.3207772534E-04
 110.7545242   -0.3238217687E-04
 110.8813171   -0.3282574835E-04
 111.0081024   -0.3340073818E-04
 111.1348953   -0.3409104829E-04
 111.2616882   -0.3487203867E-04
 111.3884811   -0.3571066190E-04
 111.5152740   -0.3656594708E-04
 111.6420670   -0.3738971645E-04
 111.7688599   -0.3812761861E-04
 111.8956528   -0.3872039088E-04