 -4.500000000   0.2901068612E-17
 -4.373207569   0.2901102113E-17
 -4.246414661   0.2901166220E-17
 -4.119622231   0.2901254521E-17
 -3.992829323   0.2901358332E-17
 -3.866036654   0.2901467934E-17
 -3.739243984   0.2901574433E-17
 -3.612451553   0.2901668732E-17
 -3.485658884   0.2901745660E-17
 -3.358866215   0.2901801701E-17
 -3.232073545   0.2901837063E-17
 -3.105280876   0.2901855468E-17
 -2.978488207   0.2901862913E-17
 -2.851695538   0.2901867048E-17
 -2.724902868   0.2901876975E-17
 -2.598110199   0.2901900549E-17
 -2.471317530   0.2901944390E-17
 -2.344524860   0.2902012012E-17
 -2.217732191   0.2902104656E-17
 -2.090939522   0.2902220048E-17
 -1.964146972   0.2902351776E-17
 -1.837354302   0.2902491777E-17
 -1.710561633   0.2902630743E-17
 -1.583768964   0.2902758749E-17
 -1.456976295   0.2902868557E-17
 -1.330183744   0.2902954377E-17
 -1.203391075   0.2903013107E-17
 -1.076598406   0.2903046194E-17
 -0.9498057365   0.2903057155E-17
 -0.8230130672   0.2903052398E-17
 -0.6962204576   0.2903036268E-17
 -0.5694277883   0.2903013934E-17
 -0.4426351190   0.2902986844E-17
 -0.3158424795   0.2902957066E-17
 -0.1890498251   0.2902930182E-17
 -0.6225717068E-01   0.2902922117E-17
 0.6453548372E-01   0.2902966165E-17
 0.1913281381   0.2903113196E-17
 0.3181207776   0.2903425457E-17
 0.4449134469   0.2903952164E-17
 0.5717061162   0.2904692284E-17
 0.6984987259   0.2905543660E-17
 0.8252913952   0.2906258137E-17
 0.9520840645   0.2906422125E-17
 1.078876734   0.2905495683E-17
 1.205669403   0.2902938868E-17
 1.332461953   0.2898429286E-17
 1.459254622   0.2892150985E-17
 1.586047292   0.2885085415E-17
 1.712839961   0.2879199611E-17
 1.839632630   0.2877392015E-17
 1.966425300   0.2883067921E-17
 2.093217850   0.2899299480E-17
 2.220010519   0.2927615320E-17
 2.346803188   0.2966648319E-17
 2.473595858   0.3011021389E-17
 2.600388527   0.3050950637E-17
 2.727181196   0.3073050422E-17
 2.853973866   0.3062634357E-17
 2.980766535   0.3007481676E-17
 3.107559204   0.2902556504E-17
 3.234351873   0.2754679771E-17
 3.361144543   0.2585768249E-17
 3.487936974   0.2433188995E-17
 3.614729643   0.2346061234E-17
 3.741522312   0.2377106770E-17
 3.868314981   0.2570743547E-17
 3.995107651   0.2949337289E-17
 4.121900558   0.3500567141E-17
 4.248692989   0.4169333981E-17
 4.375485420   0.4857352622E-17
 4.502278328   0.5432363503E-17
 4.629070759   0.5746994884E-17
 4.755863667   0.5665062230E-17
 4.882656097   0.5091056788E-17
 5.009449005   0.3997302334E-17
 5.136241436   0.2443117644E-17
 5.263034344   0.5813893219E-18
 5.389826775   -0.1350043029E-17
 5.516619682   -0.3052330168E-17
 5.643412113   -0.4202788060E-17
 5.770205021   -0.4501540055E-17
 5.896997452   -0.3722942241E-17
 6.023790359   -0.1766653682E-17
 6.150582790   0.1297228477E-17
 6.277375221   0.5195378325E-17
 6.404168129   0.9438389697E-17
 6.530960560   0.1333637245E-16
 6.657753468   0.1605098153E-16
 6.784545898   0.1668854422E-16
 6.911338806   0.1443198889E-16
 7.038131237   0.8699084617E-17
 7.164924145   -0.6970429234E-18
 7.291716576   -0.1341851811E-16
 7.418509483   -0.2854084464E-16
 7.545301914   -0.4458818161E-16
 7.672094822   -0.5967750116E-16
 7.798887253   -0.7175672038E-16
 7.925679684   -0.7889253621E-16
 8.052472115   -0.7954031789E-16
 8.179265022   -0.7272080269E-16
 8.306057930   -0.5804295918E-16
 8.432850838   -0.3555070072E-16
 8.559642792   -0.5427712680E-17
 8.686435699   0.3234492916E-16
 8.813228607   0.7823638346E-16
 8.940021515   0.1331624599E-15
 9.066813469   0.1981063421E-15
 9.193606377   0.2733209620E-15
 9.320399284   0.3571929204E-15
 9.447192192   0.4449877000E-15
 9.573984146   0.5278204813E-15
 9.700777054   0.5922672478E-15
 9.827569962   0.6210179813E-15
 9.954361916   0.5948519689E-15
 10.08115482   0.4959942242E-15
 10.20794773   0.3126065883E-15
 10.33474064   0.4383148671E-16
 10.46153259   -0.2954999903E-15
 10.58832550   -0.6715866423E-15
 10.71511841   -0.1030931000E-14
 10.84191132   -0.1303120379E-14
 10.96870327   -0.1407669232E-14
 11.09549618   -0.1264876735E-14
 11.22228909   -0.8099262338E-15
 11.34908199   -0.8708839558E-17
 11.47587395   0.1126793318E-14
 11.60266685   0.2526127111E-14
 11.72945976   0.4053608730E-14
 11.85625172   0.5509438985E-14
 11.98304462   0.6640167406E-14
 12.10983753   0.7158867513E-14
 12.23663044   0.6774063833E-14
 12.36342239   0.5225111200E-14
 12.49021530   0.2320615954E-14
 12.61700821   -0.2024267078E-14
 12.74380112   -0.7756038447E-14
 12.87059307   -0.1466056822E-13
 12.99738598   -0.2235347730E-13
 13.12417889   -0.3028507349E-13
 13.25097084   -0.3776029850E-13
 13.37776375   -0.4397288536E-13
 13.50455666   -0.4805169798E-13
 13.63134956   -0.4911676399E-13
 13.75814152   -0.4634221270E-13
 13.88493443   -0.3902342452E-13
 14.01172733   -0.2664621487E-13
 14.13852024   -0.8955835205E-14
 14.26531219   0.1397631976E-13
 14.39210510   0.4169131742E-13
 14.51889801   0.7329073871E-13
 14.64569092   0.1074001050E-12
 14.77248287   0.1421556422E-12
 14.89927578   0.1752236458E-12
 15.02606869   0.2038624125E-12
 15.15286064   0.2250359323E-12
 15.27965355   0.2355852601E-12
 15.40644646   0.2324586107E-12
 15.53323936   0.2129937123E-12
 15.66003132   0.1752379031E-12
 15.78682423   0.1182812257E-12
 15.91361713   0.4257087982E-13
 16.04040909   -0.4983264235E-13
 16.16720200   -0.1550978313E-12
 16.29399490   -0.2676028344E-12
 16.42078781   -0.3800856656E-12
 16.54758072   -0.4839832419E-12
 16.67437363   -0.5699621547E-12
 16.80116463   -0.6286235638E-12
 16.92795753   -0.6513447008E-12
 17.05475044   -0.6312003871E-12
 17.18154335   -0.5638919236E-12
 17.30833626   -0.4485983525E-12
 17.43512917   -0.2886622690E-12
 17.56192207   -0.9202107663E-13
 17.68871498   0.1286963293E-12
 17.81550598   0.3564732873E-12
 17.94229889   0.5706560983E-12
 18.06909180   0.7481716527E-12
 18.19588470   0.8652011399E-12
 18.32267761   0.8992590743E-12
 18.44947052   0.8315863731E-12
 18.57626343   0.6497178013E-12
 18.70305443   0.3500371922E-12
 18.82984734   -0.5991160259E-13
 18.95664024   -0.5596231486E-12
 19.08343315   -0.1114619573E-11
 19.21022606   -0.1676506481E-11
 19.33701897   -0.2184332793E-11
 19.46381187   -0.2567415247E-11
 19.59060478   -0.2749691317E-11
 19.71739578   -0.2655519251E-11
 19.84418869   -0.2216697095E-11
 19.97098160   -0.1380315784E-11
 20.09777451   -0.1169048175E-12
 20.22456741   0.1571774937E-11
 20.35136032   0.3646036598E-11
 20.47815323   0.6023416575E-11
 20.60494423   0.8576394803E-11
 20.73173714   0.1113331302E-10
 20.85853004   0.1348295260E-10
 20.98532295   0.1538305767E-10
 21.11211586   0.1657280389E-10
 21.23890877   0.1678897472E-10
 21.36570168   0.1578530362E-10
 21.49249458   0.1335413551E-10
 21.61928558   0.9349287837E-11
 21.74607849   0.3708703483E-11
 21.87287140   -0.3524710471E-11
 21.99966431   -0.1218584001E-10
 22.12645721   -0.2197557587E-10
 22.25325012   -0.3245628072E-10
 22.38004303   -0.4305611770E-10
 22.50683403   -0.5308359308E-10
 22.63362694   -0.6175301936E-10
 22.76041985   -0.6822107462E-10
 22.88721275   -0.7163380999E-10
 23.01400566   -0.7118254597E-10
 23.14079857   -0.6616620446E-10
 23.26759148   -0.5605685707E-10
 23.39438438   -0.4056418396E-10
 23.52117538   -0.1969445267E-10
 23.64796829   0.6201009324E-11
 23.77476120   0.3639276727E-10
 23.90155411   0.6976012823E-10
 24.02834702   0.1048015980E-09
 24.15513992   0.1396715660E-09
 24.28193283   0.1722444548E-09
 24.40872383   0.2002056437E-09
 24.53551674   0.2211671263E-09
 24.66230965   0.2328032211E-09
 24.78910255   0.2330008686E-09
 24.91589546   0.2200163524E-09
 25.04268837   0.1926298843E-09
 25.16948128   0.1502883928E-09
 25.29627419   0.9322574657E-10
 25.42306519   0.2255164631E-10
 25.54985809   -0.5970071659E-10
 25.67665100   -0.1505751634E-09
 25.80344391   -0.2462466064E-09
 25.93023682   -0.3421315176E-09
 26.05702972   -0.4330545367E-09
 26.18382263   -0.5134673242E-09
 26.31061363   -0.5777133216E-09
 26.43740654   -0.6203275671E-09
 26.56419945   -0.6363592431E-09
 26.69099236   -0.6216999138E-09
 26.81778526   -0.5734012154E-09
 26.94457817   -0.4899631256E-09
 27.07137108   -0.3715724117E-09
 27.19816399   -0.2202753951E-09
 27.32495499   -0.4006690466E-10
 27.45174789   0.1631167423E-09
 27.57854080   0.3815110172E-09
 27.70533371   0.6057472302E-09
 27.83212662   0.8251864192E-09
 27.95891953   0.1028355956E-08
 28.08571243   0.1203476319E-08
 28.21250343   0.1339056532E-08
 28.33929634   0.1424534823E-08
 28.46608925   0.1450929821E-08
 28.59288216   0.1411470607E-08
 28.71967506   0.1302164376E-08
 28.84646797   0.1122265836E-08
 28.97326088   0.8746098845E-09
 29.10005379   0.5657760371E-09
 29.22684479   0.2060557142E-09
 29.35363770   -0.1907873859E-09
 29.48043060   -0.6079807768E-09
 29.60722351   -0.1026414065E-08
 29.73401642   -0.1425503271E-08
 29.86080933   -0.1784212444E-08
 29.98760223   -0.2082188644E-08
 30.11439323   -0.2300948321E-08
 30.24118614   -0.2425054602E-08
 30.36797905   -0.2443209857E-08
 30.49477196   -0.2349191730E-08
 30.62156487   -0.2142565902E-08
 30.74835777   -0.1829108087E-08
 30.87515068   -0.1420893403E-08
 31.00194168   -0.9360159314E-09
 31.12873459   -0.3979222785E-09
 31.25552750   0.1656172699E-09
 31.38232040   0.7238843414E-09
 31.50911331   0.1244858994E-08
 31.63590622   0.1697071372E-08
 31.76269913   0.2051557146E-08
 31.88949203   0.2283797373E-08
 32.01628494   0.2375536878E-08
 32.14307785   0.2316348446E-08
 32.26987076   0.2104839414E-08
 32.39666367   0.1749393408E-08
 32.52345276   0.1268375960E-08
 32.65024567   0.6897504790E-09
 32.77703857   0.5008558498E-10
 32.90383148   -0.6070249303E-09
 33.03062439   -0.1233084079E-08
 33.15741730   -0.1777254677E-08
 33.28421021   -0.2189253223E-08
 33.41100311   -0.2422428702E-08
 33.53779602   -0.2436853164E-08
 33.66458893   -0.2202264815E-08
 33.79138184   -0.1700669383E-08
 33.91817474   -0.9284465974E-09
 34.04496765   0.1021775720E-09
 34.17176056   0.1362427615E-08
 34.29855347   0.2807106769E-08
 34.42534256   0.4375600327E-08
 34.55213547   0.5993760155E-08
 34.67892838   0.7576591798E-08
 34.80572128   0.9031671411E-08
 34.93251419   0.1026313434E-07
 35.05930710   0.1117607606E-07
 35.18610001   0.1168114938E-07
 35.31289291   0.1169916342E-07
 35.43968582   0.1116543924E-07
 35.56647873   0.1003373118E-07
 35.69327164   0.8279500641E-08
 35.82006454   0.5902365263E-08
 35.94685745   0.2927610376E-08
 36.07365036   -0.5933343261E-09
 36.20044327   -0.4583511348E-08
 36.32723236   -0.8942126151E-08
 36.45402527   -0.1354726642E-07
 36.58081818   -0.1825954321E-07
 36.70761108   -0.2292650159E-07
 36.83440399   -0.2738764060E-07
 36.96119690   -0.3147986050E-07
 37.08798981   -0.3504310797E-07
 37.21478271   -0.3792596104E-07
 37.34157562   -0.3999101494E-07
 37.46836853   -0.4111984708E-07
 37.59516144   -0.4121731578E-07
 37.72195435   -0.4021519118E-07
 37.84874725   -0.3807483751E-07
 37.97554016   -0.3478902499E-07
 38.10232925   -0.3038272212E-07
 38.22912216   -0.2491292861E-07
 38.35591507   -0.1846756170E-07
 38.48270798   -0.1116346215E-07
 38.60950089   -0.3143605154E-08
 38.73629379   0.5426354477E-08
 38.86308670   0.1436210084E-07
 38.98987961   0.2346509653E-07
 39.11667252   0.3252730707E-07
 39.24346542   0.4133608300E-07
 39.37025833   0.4967907330E-07
 39.49705124   0.5734908015E-07
 39.62384415   0.6414870057E-07
 39.75063705   0.6989473889E-07
 39.87742996   0.7442226746E-07
 40.00421906   0.7758834641E-07
 40.13101196   0.7927529566E-07
 40.25780487   0.7939355129E-07
 40.38459778   0.7788401035E-07
 40.51139069   0.7471996355E-07
 40.63818359   0.6990848078E-07
 40.76497650   0.6349130643E-07
 40.89176941   0.5554518268E-07
 41.01856232   0.4618156879E-07
 41.14535522   0.3554571038E-07
 41.27214813   0.2381500863E-07
 41.39894104   0.1119651127E-07
 41.52573395   -0.2076432359E-08
 41.65252686   -0.1574856334E-07
 41.77931976   -0.2954817013E-07
 41.90610886   -0.4319372948E-07
 42.03290176   -0.5640177747E-07
 42.15969467   -0.6889603554E-07
 42.28648758   -0.8041781285E-07
 42.41328049   -0.9073757923E-07
 42.54007339   -0.9966771586E-07
 42.66686630   -0.1070761684E-06
 42.79365921   -0.1129008922E-06
 42.92045212   -0.1171647739E-06
 43.04724503   -0.1199908013E-06
 43.17403793   -0.1216170062E-06
 43.30083084   -0.1224109383E-06
 43.42762375   -0.1228830513E-06
 43.55441666   -0.1236988965E-06
 43.68120956   -0.1256892972E-06
 43.80799866   -0.1298581793E-06
 43.93479156   -0.1373879428E-06
 44.06158447   -0.1496413375E-06
 44.18837738   -0.1681600423E-06
 44.31517029   -0.1946592647E-06
 44.44196320   -0.2310180349E-06
 44.56875610   -0.2792652083E-06
 44.69554901   -0.3415607921E-06
 44.82234192   -0.4201723129E-06
 44.94913483   -0.5174467219E-06
 45.07592773   -0.6357768143E-06
 45.20272064   -0.7775641393E-06
 45.32951355   -0.9451764527E-06
 45.45630646   -0.1140901645E-05
 45.58309937   -0.1366897777E-05
 45.70988846   -0.1625141522E-05
 45.83668137   -0.1917373083E-05
 45.96347427   -0.2245039695E-05
 46.09026718   -0.2609241619E-05
 46.21706009   -0.3010676664E-05
 46.34385300   -0.3449589030E-05
 46.47064590   -0.3925720648E-05
 46.59743881   -0.4438270935E-05
 46.72423172   -0.4985859960E-05
 46.85102463   -0.5566506388E-05
 46.97781754   -0.6177609066E-05
 47.10461044   -0.6815946563E-05
 47.23140335   -0.7477687632E-05
 47.35819626   -0.8158413948E-05
 47.48498917   -0.8853164218E-05
 47.61177826   -0.9556491023E-05
 47.73857117   -0.1026253176E-04
 47.86536407   -0.1096509459E-04
 47.99215698   -0.1165776393E-04
 48.11894989   -0.1233401417E-04
 48.24574280   -0.1298733696E-04
 48.37253571   -0.1361137402E-04
 48.49932861   -0.1420005992E-04
 48.62612152   -0.1474776036E-04
 48.75291443   -0.1524941672E-04
 48.87970734   -0.1570067798E-04
 49.00650024   -0.1609802530E-04
 49.13329315   -0.1643888754E-04
 49.26008606   -0.1672173130E-04
 49.38687897   -0.1694613820E-04
 49.51366806   -0.1711285040E-04
 49.64046097   -0.1722379784E-04
 49.76725388   -0.1728208554E-04
 49.89404678   -0.1729196083E-04
 50.02083969   -0.1725874790E-04
 50.14763260   -0.1718875865E-04
 50.27442551   -0.1708915806E-04
 50.40121841   -0.1696782965E-04
 50.52801132   -0.1683319897E-04
 50.65480423   -0.1669404628E-04
 50.78159714   -0.1655931374E-04
 50.90839005   -0.1643788892E-04
 51.03518295   -0.1633840475E-04
 51.16197586   -0.1626902304E-04
 51.28876877   -0.1623725075E-04
 51.41555786   -0.1624974357E-04
 51.54235077   -0.1631215855E-04
 51.66914368   -0.1642900133E-04
 51.79593658   -0.1660353701E-04
 51.92272949   -0.1683768460E-04
 52.04952240   -0.1713199526E-04
 52.17631531   -0.1748562863E-04
 52.30310822   -0.1789637645E-04
 52.42990112   -0.1836071897E-04
 52.55669403   -0.1887390499E-04
 52.68348694   -0.1943007373E-04
 52.81027985   -0.2002238398E-04
 52.93707275   -0.2064317414E-04
 53.06386566   -0.2128413871E-04
 53.19065857   -0.2193650471E-04
 53.31744766   -0.2259122812E-04
 53.44424057   -0.2323917579E-04
 53.57103348   -0.2387131826E-04
 53.69782639   -0.2447890074E-04
 53.82461929   -0.2505361408E-04
 53.95141220   -0.2558774213E-04
 54.07820511   -0.2607429997E-04
 54.20499802   -0.2650714669E-04
 54.33179092   -0.2688107816E-04
 54.45858383   -0.2719190525E-04
 54.58537674   -0.2743650111E-04
 54.71216965   -0.2761284850E-04
 54.83896255   -0.2772003972E-04
 54.96575546   -0.2775828034E-04
 55.09254837   -0.2772888183E-04
 55.21933746   -0.2763421071E-04
 55.34613037   -0.2747765575E-04
 55.47292328   -0.2726356433E-04
 55.59971619   -0.2699717334E-04
 55.72650909   -0.2668453453E-04
 55.85330200   -0.2633242184E-04
 55.98009491   -0.2594824036E-04
 56.10688782   -0.2553991726E-04
 56.23368073   -0.2511579260E-04
 56.36047363   -0.2468450111E-04
 56.48726654   -0.2425484308E-04
 56.61405945   -0.2383565516E-04
 56.74085236   -0.2343567940E-04
 56.86764526   -0.2306341412E-04
 56.99443817   -0.2272698293E-04
 57.12122726   -0.2243399285E-04
 57.24802017   -0.2219139606E-04
 57.37481308   -0.2200537165E-04
 57.50160599   -0.2188119470E-04
 57.62839890   -0.2182314165E-04
 57.75519180   -0.2183439574E-04
 57.88198471   -0.2191699241E-04
 58.00877762   -0.2207175203E-04
 58.13557053   -0.2229828533E-04
 58.26236343   -0.2259498797E-04
 58.38915634   -0.2295907143E-04
 58.51594925   -0.2338664126E-04
 58.64274216   -0.2387277527E-04
 58.76953506   -0.2441164543E-04
 58.89632797   -0.2499665061E-04
 59.02311707   -0.2562057489E-04
 59.14990997   -0.2627575486E-04
 59.27670288   -0.2695425064E-04
 59.40349579   -0.2764802957E-04
 59.53028870   -0.2834913357E-04
 59.65708160   -0.2904984649E-04
 59.78387451   -0.2974282870E-04
 59.91066742   -0.3042125172E-04
 60.03746033   -0.3107887824E-04
 60.16425323   -0.3171014396E-04
 60.29104614   -0.3231016308E-04
 60.41783905   -0.3287475192E-04
 60.54463196   -0.3340037438E-04
 60.67142487   -0.3388409459E-04
 60.79821777   -0.3432346057E-04
 60.92500687   -0.3471640593E-04
 61.05179977   -0.3506112625E-04
 61.17859268   -0.3535592623E-04
 61.30538559   -0.3559910328E-04
 61.43217850   -0.3578881297E-04
 61.55897141   -0.3592296343E-04
 61.68576431   -0.3599913543E-04
 61.81255722   -0.3601453500E-04
 61.93935013   -0.3596597890E-04
 62.06614304   -0.3584992737E-04
 62.19293594   -0.3566255691E-04
 62.31972885   -0.3539988757E-04
 62.44652176   -0.3505793575E-04
 62.57331467   -0.3463291796E-04
 62.70010757   -0.3412147635E-04
 62.82689667   -0.3352095518E-04
 62.95368958   -0.3282964099E-04
 63.08048248   -0.3204704990E-04
 63.20727539   -0.3117418964E-04
 63.33406830   -0.3021380326E-04
 63.46086121   -0.2917056372E-04
 63.58765411   -0.2805125405E-04
 63.71444702   -0.2686487096E-04
 63.84123993   -0.2562266127E-04
 63.96803284   -0.2433811096E-04
 64.09482574   -0.2302683970E-04
 64.22161865   -0.2170642802E-04
 64.34841156   -0.2039617539E-04
 64.47520447   -0.1911678737E-04
 64.60199738   -0.1788998998E-04
 64.72879028   -0.1673810766E-04
 64.85558319   -0.1568359039E-04
 64.98237610   -0.1474851342E-04
 65.10916901   -0.1395407162E-04
 65.23596191   -0.1332006832E-04
 65.36275482   -0.1286443785E-04
 65.48954773   -0.1260278259E-04
 65.61633301   -0.1254798644E-04
 65.74312592   -0.1270987013E-04
 65.86991882   -0.1309493564E-04
 65.99671173   -0.1370618884E-04
 66.12350464   -0.1454305220E-04
 66.25029755   -0.1560137571E-04
 66.37709045   -0.1687352778E-04
 66.50388336   -0.1834859722E-04
 66.63067627   -0.2001265057E-04
 66.75746918   -0.2184908226E-04
 66.88426208   -0.2383902392E-04
 67.01105499   -0.2596178456E-04
 67.13784790   -0.2819533802E-04
 67.26464081   -0.3051682506E-04
 67.39143372   -0.3290304085E-04
 67.51822662   -0.3533090785E-04
 67.64501953   -0.3777793609E-04
 67.77181244   -0.4022259600E-04
 67.89860535   -0.4264465679E-04
 68.02539825   -0.4502546653E-04
 68.15219116   -0.4734811228E-04
 68.27898407   -0.4959756188E-04
 68.40577698   -0.5176065679E-04
 68.53256989   -0.5382608651E-04
 68.65936279   -0.5578426499E-04
 68.78615570   -0.5762715227E-04
 68.91294861   -0.5934801811E-04
 69.03974152   -0.6094119090E-04
 69.16653442   -0.6240175571E-04
 69.29332733   -0.6372528151E-04
 69.42011261   -0.6490753003E-04
 69.54690552   -0.6594420120E-04
 69.67369843   -0.6683074025E-04
 69.80049133   -0.6756215589E-04
 69.92728424   -0.6813292566E-04
 70.05407715   -0.6853697414E-04
 70.18087006   -0.6876773114E-04
 70.30766296   -0.6881821901E-04
 70.43445587   -0.6868126366E-04
 70.56124878   -0.6834977103E-04
 70.68804169   -0.6781702541E-04
 70.81483459   -0.6707703142E-04
 70.94162750   -0.6612495054E-04
 71.06842041   -0.6495749403E-04
 71.19521332   -0.6357333041E-04
 71.32200623   -0.6197350012E-04
 71.44879913   -0.6016176121E-04
 71.57559204   -0.5814494943E-04
 71.70238495   -0.5593318929E-04
 71.82917786   -0.5354010864E-04
 71.95597076   -0.5098292968E-04
 72.08276367   -0.4828247620E-04
 72.20955658   -0.4546310083E-04
 72.33634949   -0.4255251406E-04
 72.46314240   -0.3958150410E-04
 72.58993530   -0.3658359856E-04
 72.71672821   -0.3359463881E-04
 72.84352112   -0.3065228157E-04
 72.97031403   -0.2779545684E-04
 73.09710693   -0.2506377496E-04
 73.22389221   -0.2249692625E-04
 73.35068512   -0.2013404992E-04
 73.47747803   -0.1801312101E-04
 73.60427094   -0.1617033558E-04
 73.73106384   -0.1463954777E-04
 73.85785675   -0.1345172768E-04
 73.98464966   -0.1263446757E-04
 74.11144257   -0.1221155617E-04
 74.23823547   -0.1220259310E-04
 74.36502838   -0.1262267961E-04
 74.49182129   -0.1348216301E-04
 74.61861420   -0.1478645481E-04
 74.74540710   -0.1653589788E-04
 74.87220001   -0.1872571374E-04
 74.99899292   -0.2134598435E-04
 75.12578583   -0.2438171941E-04
 75.25257874   -0.2781295916E-04
 75.37937164   -0.3161492714E-04
 75.50616455   -0.3575825031E-04
 75.63295746   -0.4020922279E-04
 75.75975037   -0.4493010420E-04
 75.88654327   -0.4987946522E-04
 76.01333618   -0.5501261694E-04
 76.14012909   -0.6028199641E-04
 76.26692200   -0.6563769421E-04
 76.39371490   -0.7102792006E-04
 76.52050781   -0.7639956311E-04
 76.64730072   -0.8169873763E-04
 76.77409363   -0.8687136869E-04
 76.90088654   -0.9186372336E-04
 77.02767181   -0.9662302182E-04
 77.15446472   -0.1010979613E-03
 77.28125763   -0.1052392909E-03
 77.40805054   -0.1090002552E-03
 77.53484344   -0.1123370821E-03
 77.66163635   -0.1152093682E-03
 77.78842926   -0.1175804282E-03
 77.91522217   -0.1194175784E-03
 78.04201508   -0.1206923553E-03
 78.16880798   -0.1213806536E-03
 78.29560089   -0.1214628501E-03
 78.42239380   -0.1209237889E-03
 78.54918671   -0.1197528109E-03
 78.67597961   -0.1179436731E-03
 78.80277252   -0.1154944257E-03
 78.92956543   -0.1124073460E-03
 79.05635834   -0.1086887714E-03
 79.18315125   -0.1043489974E-03
 79.30994415   -0.9940216114E-04
 79.43673706   -0.9386608872E-04
 79.56352997   -0.8776226605E-04
 79.69032288   -0.8111573698E-04
 79.81711578   -0.7395509601E-04
 79.94390869   -0.6631241558E-04
 80.07070160   -0.5822326420E-04
 80.19749451   -0.4972667375E-04
 80.32428741   -0.4086511763E-04
 80.45108032   -0.3168445255E-04
 80.57787323   -0.2223381307E-04
 80.70465851   -0.1256546147E-04
 80.83145142   -0.2734575673E-05
 80.95824432   0.7201069820E-05
 81.08503723   0.1718149178E-04
 81.21183014   0.2714497896E-04
 81.33862305   0.3702871254E-04
 81.46541595   0.4676942990E-04
 81.59220886   0.5630422311E-04
 81.71900177   0.6557137385E-04
 81.84579468   0.7451129204E-04
 81.97258759   0.8306746895E-04
 82.09938049   0.9118745947E-04
 82.22617340   0.9882383893E-04
 82.35296631   0.1059351125E-03
 82.47975922   0.1124866176E-03
 82.60655212   0.1184511493E-03
 82.73334503   0.1238096884E-03
 82.86013794   0.1285517792E-03
 82.98693085   0.1326757774E-03
 83.11372375   0.1361889736E-03
 83.24051666   0.1391073602E-03
 83.36730957   0.1414552971E-03
 83.49410248   0.1432649005E-03
 83.62089539   0.1445752423E-03
 83.74768829   0.1454313315E-03
 83.87448120   0.1458830375E-03
 84.00127411   0.1459836785E-03
 84.12806702   0.1457887120E-03
 84.25485992   0.1453543082E-03
 84.38165283   0.1447357499E-03
 84.50843811   0.1439861662E-03
 84.63523102   0.1431550190E-03
 84.76202393   0.1422869973E-03
 84.88881683   0.1414208236E-03
 85.01560974   0.1405884395E-03
 85.14240265   0.1398142631E-03
 85.26919556   0.1391147234E-03
 85.39598846   0.1384981879E-03
 85.52278137   0.1379649038E-03
 85.64957428   0.1375073189E-03
 85.77636719   0.1371106628E-03
 85.90316010   0.1367537043E-03
 86.02995300   0.1364096388E-03
 86.15674591   0.1360472670E-03
 86.28353882   0.1356321736E-03
 86.41033173   0.1351279934E-03
 86.53712463   0.1344978082E-03
 86.66391754   0.1337054127E-03
 86.79071045   0.1327165955E-03
 86.91750336   0.1315004047E-03
 87.04429626   0.1300301228E-03
 87.17108917   0.1282842422E-03
 87.29788208   0.1262472506E-03
 87.42467499   0.1239101693E-03
 87.55146790   0.1212709903E-03
 87.67826080   0.1183347922E-03
 87.80505371   0.1151138204E-03
 87.93184662   0.1116272178E-03
 88.05863953   0.1079007052E-03
 88.18543243   0.1039660347E-03
 88.31221771   0.9986032092E-04
 88.43901062   0.9562524792E-04
 88.56580353   0.9130622493E-04
 88.69259644   0.8695137512E-04
 88.81938934   0.8261060430E-04
 88.94618225   0.7833455311E-04
 89.07297516   0.7417358574E-04
 89.19976807   0.7017681492E-04
 89.32656097   0.6639113417E-04
 89.45335388   0.6286038843E-04
 89.58014679   0.5962451542E-04
 89.70693970   0.5671891267E-04
 89.83373260   0.5417378634E-04
 89.96052551   0.5201372551E-04
 90.08731842   0.5025730570E-04
 90.21411133   0.4891691788E-04
 90.34090424   0.4799864109E-04
 90.46769714   0.4750231528E-04
 90.59449005   0.4742168312E-04
 90.72128296   0.4774471381E-04
 90.84807587   0.4845401781E-04
 90.97486877   0.4952732706E-04
 91.10166168   0.5093811342E-04
 91.22845459   0.5265625077E-04
 91.35524750   0.5464874630E-04
 91.48204041   0.5688046804E-04
 91.60883331   0.5931492706E-04
 91.73562622   0.6191501598E-04
 91.86241913   0.6464371836E-04
 91.98921204   0.6746478175E-04
 92.11599731   0.7034331793E-04
 92.24279022   0.7324631588E-04
 92.36958313   0.7614307106E-04
 92.49637604   0.7900549099E-04
 92.62316895   0.8180833538E-04
 92.74996185   0.8452929615E-04
 92.87675476   0.8714904834E-04
 93.00354767   0.8965112647E-04
 93.13034058   0.9202175715E-04
 93.25713348   0.9424965538E-04
 93.38392639   0.9632567526E-04
 93.51071930   0.9824251174E-04
 93.63751221   0.9999434405E-04
 93.76430511   0.1015764792E-03
 93.89109802   0.1029850173E-03
 94.01789093   0.1042165386E-03
 94.14468384   0.1052678708E-03
 94.27147675   0.1061358562E-03
 94.39826965   0.1068172787E-03
 94.52506256   0.1073087333E-03
 94.65185547   0.1076066837E-03
 94.77864838   0.1077075503E-03
 94.90544128   0.1076077679E-03
 95.03223419   0.1073040839E-03
 95.15902710   0.1067936973E-03
 95.28582001   0.1060745344E-03
 95.41261292   0.1051455329E-03
 95.53940582   0.1040068455E-03
 95.66619873   0.1026601167E-03
 95.79299164   0.1011086279E-03
 95.91977692   0.9935746493E-04
 96.04656982   0.9741359099E-04
 96.17336273   0.9528580995E-04
 96.30015564   0.9298476652E-04
 96.42694855   0.9052275709E-04
 96.55374146   0.8791351138E-04
 96.68053436   0.8517193055E-04
 96.80732727   0.8231375250E-04
 96.93412018   0.7935518806E-04
 97.06091309   0.7631249900E-04
 97.18770599   0.7320161239E-04
 97.31449890   0.7003776409E-04
 97.44129181   0.6683509127E-04
 97.56808472   0.6360636326E-04
 97.69487762   0.6036276318E-04
 97.82167053   0.5711369522E-04
 97.94846344   0.5386674457E-04
 98.07525635   0.5062769924E-04
 98.20204926   0.4740067016E-04
 98.32884216   0.4418832032E-04
 98.45563507   0.4099215221E-04
 98.58242798   0.3781286432E-04
 98.70922089   0.3465078771E-04
 98.83601379   0.3150631164E-04
 98.96280670   0.2838035107E-04
 99.08959961   0.2527477045E-04
 99.21639252   0.2219278940E-04
 99.34318542   0.1913931374E-04
 99.46997833   0.1612117740E-04
 99.59677124   0.1314731708E-04
 99.72355652   0.1022878587E-04
 99.85034943   0.7378691862E-05
 99.97714233   0.4611989425E-05
 100.1039352   0.1945153144E-05
 100.2307281   -0.6042328664E-06
 100.3575211   -0.3018020379E-05
 100.4843140   -0.5278094250E-05
 100.6111069   -0.7367020771E-05
 100.7378998   -0.9268729627E-05
 100.8646927   -0.1096919914E-04
 100.9914856   -0.1245709245E-04
 101.1182785   -0.1372433417E-04
 101.2450714   -0.1476663692E-04
 101.3718643   -0.1558385156E-04
 101.4986572   -0.1618024180E-04
 101.6254501   -0.1656459062E-04
 101.7522430   -0.1675015665E-04
 101.8790359   -0.1675446219E-04
 102.0058289   -0.1659897134E-04
 102.1326218   -0.1630857878E-04
 102.2594147   -0.1591098771E-04
 102.3862076   -0.1543598773E-04
 102.5130005   -0.1491463900E-04
 102.6397934   -0.1437841729E-04
 102.7665863   -0.1385830637E-04
 102.8933792   -0.1338391849E-04
 103.0201721   -0.1298263942E-04
 103.1469650   -0.1267883999E-04
 103.2737579   -0.1249317029E-04
 103.4005508   -0.1244197665E-04
 103.5273361   -0.1253681876E-04
 103.6541290   -0.1278416130E-04
 103.7809219   -0.1318518662E-04
 103.9077148   -0.1373576742E-04
 104.0345078   -0.1442657776E-04
 104.1613007   -0.1524334766E-04
 104.2880936   -0.1616724330E-04
 104.4148865   -0.1717535088E-04
 104.5416794   -0.1824126412E-04
 104.6684723   -0.1933574640E-04
 104.7952652   -0.2042743472E-04
 104.9220581   -0.2148360545E-04
 105.0488510   -0.2247094199E-04
 105.1756439   -0.2335631871E-04
 105.3024368   -0.2410757043E-04
 105.4292297   -0.2469424908E-04
 105.5560226   -0.2508834041E-04
 105.6828156   -0.2526495882E-04
 105.8096085   -0.2520298767E-04
 105.9364014   -0.2488567588E-04
 106.0631943   -0.2430118184E-04
 106.1899872   -0.2344305176E-04
 106.3167801   -0.2231064354E-04
 106.4435730   -0.2090946145E-04
 106.5703659   -0.1925142533E-04
 106.6971588   -0.1735503065E-04
 106.8239517   -0.1524542586E-04
 106.9507446   -0.1295435413E-04
 107.0775375   -0.1051998333E-04
 107.2043304   -0.7986583114E-05
 107.3311157   -0.5404054718E-05
 107.4579086   -0.2827306844E-05
 107.5847015   -0.3154516151E-06
 107.7114944   0.2069155016E-05
 107.8382874   0.4262039965E-05
 107.9650803   0.6197891253E-05
 108.0918732   0.7811975593E-05
 108.2186661   0.9041656085E-05
 108.3454590   0.9827992471E-05
 108.4722519   0.1011738732E-04
 108.5990448   0.9863205378E-05
 108.7258377   0.9027361557E-05
 108.8526306   0.7581784757E-05
 108.9794235   0.5509728908E-05
 109.1062164   0.2806864131E-05
 109.2330093   -0.5178899869E-06
 109.3598022   -0.4441837518E-05
 109.4865952   -0.8928323041E-05
 109.6133881   -0.1392692138E-04
 109.7401810   -0.1937400521E-04
 109.8669739   -0.2519370355E-04
 109.9937668   -0.3129924153E-04
 110.1205597   -0.3759462561E-04
 110.2473526   -0.4397663361E-04
 110.3741455   -0.5033709022E-04
 110.5009384   -0.5656531357E-04
 110.6277313   -0.6255070184E-04
 110.7545242   -0.6818536349E-04
 110.8813171   -0.7336671115E-04
 111.0081024   -0.7799993182E-04
 111.1348953   -0.8200026059E-04
 111.2616882   -0.8529495244E-04
 111.3884811   -0.8782494115E-04
 111.5152740   -0.8954607620E-04
 111.6420670   -0.9042988677E-04
 111.7688599   -0.9046393097E-04
 111.8956528   -0.8965162851E-04