 -4.500000000   -0.4537460476E-18
 -4.373207569   -0.4537373622E-18
 -4.246414661   -0.4537212839E-18
 -4.119622231   -0.4536994153E-18
 -3.992829323   -0.4536735659E-18
 -3.866036654   -0.4536463723E-18
 -3.739243984   -0.4536211433E-18
 -3.612451553   -0.4535981891E-18
 -3.485658884   -0.4535807666E-18
 -3.358866215   -0.4535683589E-18
 -3.232073545   -0.4535614312E-18
 -3.105280876   -0.4535590014E-18
 -2.978488207   -0.4535591565E-18
 -2.851695538   -0.4535602422E-18
 -2.724902868   -0.4535592082E-18
 -2.598110199   -0.4535548138E-18
 -2.471317530   -0.4535456114E-18
 -2.344524860   -0.4535310840E-18
 -2.217732191   -0.4535109215E-18
 -2.090939522   -0.4534862095E-18
 -1.964146972   -0.4534571031E-18
 -1.837354302   -0.4534248430E-18
 -1.710561633   -0.4533884471E-18
 -1.583768964   -0.4533498281E-18
 -1.456976295   -0.4533150865E-18
 -1.330183744   -0.4532968368E-18
 -1.203391075   -0.4533194809E-18
 -1.076598406   -0.4534105225E-18
 -0.9498057365   -0.4535826794E-18
 -0.8230130672   -0.4537977464E-18
 -0.6962204576   -0.4539265798E-18
 -0.5694277883   -0.4537293489E-18
 -0.4426351190   -0.4528989113E-18
 -0.3158424795   -0.4512030359E-18
 -0.1890498251   -0.4487176167E-18
 -0.6225717068E-01   -0.4460882163E-18
 0.6453548372E-01   -0.4446559531E-18
 0.1913281381   -0.4462487927E-18
 0.3181207776   -0.4524910078E-18
 0.4449134469   -0.4636389726E-18
 0.5717061162   -0.4772761307E-18
 0.6984987259   -0.4874942928E-18
 0.8252913952   -0.4853678700E-18
 0.9520840645   -0.4613832511E-18
 1.078876734   -0.4099181155E-18
 1.205669403   -0.3349216302E-18
 1.332461953   -0.2549009273E-18
 1.459254622   -0.2045998933E-18
 1.586047292   -0.2308191923E-18
 1.712839961   -0.3810163215E-18
 1.839632630   -0.6855875576E-18
 1.966425300   -0.1137543224E-17
 2.093217850   -0.1675714582E-17
 2.220010519   -0.2178575358E-17
 2.346803188   -0.2474319931E-17
 2.473595858   -0.2368980547E-17
 2.600388527   -0.1688910285E-17
 2.727181196   -0.3288748106E-18
 2.853973866   0.1705506836E-17
 2.980766535   0.4270447298E-17
 3.107559204   0.7075262900E-17
 3.234351873   0.9687874814E-17
 3.361144543   0.1154504749E-16
 3.487936974   0.1196041872E-16
 3.614729643   0.1013656074E-16
 3.741522312   0.5208971798E-17
 3.868314981   -0.3628409145E-17
 3.995107651   -0.1685954561E-16
 4.121900558   -0.3421083356E-16
 4.248692989   -0.5407385213E-16
 4.375485420   -0.7291639451E-16
 4.502278328   -0.8492526368E-16
 4.629070759   -0.8220742612E-16
 4.755863667   -0.5587577906E-16
 4.882656097   0.1786875973E-17
 5.009449005   0.9417506199E-16
 5.136241436   0.2167109973E-15
 5.263034344   0.3536257205E-15
 5.389826775   0.4764215692E-15
 5.516619682   0.5453250525E-15
 5.643412113   0.5146941706E-15
 5.770205021   0.3425569057E-15
 5.896997452   0.3308017279E-17
 6.023790359   -0.4986912830E-15
 6.150582790   -0.1117936848E-14
 6.277375221   -0.1762832370E-14
 6.404168129   -0.2300332268E-14
 6.530960560   -0.2572065943E-14
 6.657753468   -0.2421431086E-14
 6.784545898   -0.1728254897E-14
 6.911338806   -0.4448966969E-15
 7.038131237   0.1374179773E-14
 7.164924145   0.3557612917E-14
 7.291716576   0.5823789428E-14
 7.418509483   0.7812167932E-14
 7.545301914   0.9137799905E-14
 7.672094822   0.9462502362E-14
 7.798887253   0.8571730328E-14
 7.925679684   0.6443518120E-14
 8.052472115   0.3295554264E-14
 8.179265022   -0.4013837145E-15
 8.306057930   -0.3951000853E-14
 8.432850838   -0.6501742317E-14
 8.559642792   -0.7155342162E-14
 8.686435699   -0.5103925773E-14
 8.813228607   0.2181545002E-15
 8.940021515   0.8983733083E-14
 9.066813469   0.2084022415E-13
 9.193606377   0.3481081797E-13
 9.320399284   0.4924369357E-13
 9.447192192   0.6182092327E-13
 9.573984146   0.6963566280E-13
 9.700777054   0.6934258940E-13
 9.827569962   0.5738146097E-13
 9.954361916   0.3026819043E-13
 10.08115482   -0.1505931407E-13
 10.20794773   -0.8086005552E-13
 10.33474064   -0.1682003739E-12
 10.46153259   -0.2765876449E-12
 10.58832550   -0.4036618587E-12
 10.71511841   -0.5449787214E-12
 10.84191132   -0.6939135681E-12
 10.96870327   -0.8417052862E-12
 11.09549618   -0.9776487345E-12
 11.22228909   -0.1089428352E-11
 11.34908199   -0.1163570542E-11
 11.47587395   -0.1185980350E-11
 11.60266685   -0.1142517287E-11
 11.72945976   -0.1019561931E-11
 11.85625172   -0.8045334689E-12
 11.98304462   -0.4863295096E-12
 12.10983753   -0.5568376638E-13
 12.23663044   0.4945319328E-12
 12.36342239   0.1169004455E-11
 12.49021530   0.1969595494E-11
 12.61700821   0.2894770578E-11
 12.74380112   0.3938742995E-11
 12.87059307   0.5090243331E-11
 12.99738598   0.6330869422E-11
 13.12417889   0.7633017482E-11
 13.25097084   0.8957471050E-11
 13.37776375   0.1025077332E-10
 13.50455666   0.1144262029E-10
 13.63134956   0.1244353925E-10
 13.75814152   0.1314318879E-10
 13.88493443   0.1340965707E-10
 14.01172733   0.1309019212E-10
 14.13852024   0.1201379881E-10
 14.26531219   0.9996212191E-11
 14.39210510   0.6847616658E-11
 14.51889801   0.2383605466E-11
 14.64569092   -0.3560350148E-11
 14.77248287   -0.1111083101E-10
 14.89927578   -0.2033491778E-10
 15.02606869   -0.3121573486E-10
 15.15286064   -0.4362607497E-10
 15.27965355   -0.5730168770E-10
 15.40644646   -0.7181633066E-10
 15.53323936   -0.8656113326E-10
 15.66003132   -0.1007314718E-09
 15.78682423   -0.1133244054E-09
 15.91361713   -0.1231500596E-09
 16.04040909   -0.1288597978E-09
 16.16720200   -0.1289934132E-09
 16.29399490   -0.1220464702E-09
 16.42078781   -0.1065581651E-09
 16.54758072   -0.8121734535E-10
 16.67437363   -0.4498421080E-10
 16.80116463   0.2778134276E-11
 16.92795753   0.6216877013E-10
 17.05475044   0.1326191101E-09
 17.18154335   0.2127777260E-09
 17.30833626   0.3004202165E-09
 17.43512917   0.3923947556E-09
 17.56192207   0.4846129609E-09
 17.68871498   0.5720958707E-09
 17.81550598   0.6490812887E-09
 17.94229889   0.7091971455E-09
 18.06909180   0.7457026108E-09
 18.19588470   0.7517934608E-09
 18.32267761   0.7209660646E-09
 18.44947052   0.6474273340E-09
 18.57626343   0.5265362035E-09
 18.70305443   0.3552567684E-09
 18.82984734   0.1325986126E-09
 18.95664024   -0.1399794725E-09
 19.08343315   -0.4582325075E-09
 19.21022606   -0.8148847153E-09
 19.33701897   -0.1199504829E-08
 19.46381187   -0.1598524757E-08
 19.59060478   -0.1995420051E-08
 19.71739578   -0.2371067120E-08
 19.84418869   -0.2704279911E-08
 19.97098160   -0.2972524227E-08
 20.09777451   -0.3152800021E-08
 20.22456741   -0.3222665024E-08
 20.35136032   -0.3161372719E-08
 20.47815323   -0.2951081823E-08
 20.60494423   -0.2578091296E-08
 20.73173714   -0.2034045599E-08
 20.85853004   -0.1317049469E-08
 20.98532295   -0.4326331238E-09
 21.11211586   0.6054958201E-09
 21.23890877   0.1774971170E-08
 21.36570168   0.3044612118E-08
 21.49249458   0.4374638873E-08
 21.61928558   0.5717290641E-08
 21.74607849   0.7017871617E-08
 21.87287140   0.8216221481E-08
 21.99966431   0.9248604549E-08
 22.12645721   0.1004997507E-07
 22.25325012   0.1055657428E-07
 22.38004303   0.1070877698E-07
 22.50683403   0.1045409448E-07
 22.63362694   0.9750226404E-08
 22.76041985   0.8568036058E-08
 22.88721275   0.6894308680E-08
 23.01400566   0.4734159287E-08
 23.14079857   0.2112942932E-08
 23.26759148   -0.9224623287E-09
 23.39438438   -0.4303126744E-08
 23.52117538   -0.7938385949E-08
 23.64796829   -0.1171709396E-07
 23.77476120   -0.1550984585E-07
 23.90155411   -0.1917218029E-07
 24.02834702   -0.2254873976E-07
 24.15513992   -0.2547828792E-07
 24.28193283   -0.2779950137E-07
 24.40872383   -0.2935733789E-07
 24.53551674   -0.3000978310E-07
 24.66230965   -0.2963476042E-07
 24.78910255   -0.2813689903E-07
 24.91589546   -0.2545390032E-07
 25.04268837   -0.2156216183E-07
 25.16948128   -0.1648142067E-07
 25.29627419   -0.1027806462E-07
 25.42306519   -0.3066905618E-08
 25.54985809   0.4988803592E-08
 25.67665100   0.1367928526E-07
 25.80344391   0.2275215039E-07
 25.93023682   0.3191831865E-07
 26.05702972   0.4085989858E-07
 26.18382263   0.4923982644E-07
 26.31061363   0.5671303782E-07
 26.43740654   0.6293883814E-07
 26.56419945   0.6759407967E-07
 26.69099236   0.7038661920E-07
 26.81778526   0.7106857680E-07
 26.94457817   0.6944886621E-07
 27.07137108   0.6540441433E-07
 27.19816399   0.5888947285E-07
 27.32495499   0.4994262781E-07
 27.45174789   0.3869100595E-07
 27.57854080   0.2535129617E-07
 27.70533371   0.1022745444E-07
 27.83212662   -0.6295159949E-08
 27.95891953   -0.2375908537E-07
 28.08571243   -0.4164740375E-07
 28.21250343   -0.5939935122E-07
 28.33929634   -0.7642849909E-07
 28.46608925   -0.9214286223E-07
 28.59288216   -0.1059662154E-06
 28.71967506   -0.1173599458E-06
 28.84646797   -0.1258443660E-06
 28.97326088   -0.1310188509E-06
 29.10005379   -0.1325796717E-06
 29.22684479   -0.1303349819E-06
 29.35363770   -0.1242158447E-06
 29.48043060   -0.1142830541E-06
 29.60722351   -0.1007290251E-06
 29.73401642   -0.8387460326E-07
 29.86080933   -0.6416056664E-07
 29.98760223   -0.4213415039E-07
 30.11439323   -0.1843086039E-07
 30.24118614   0.6247890649E-08
 30.36797905   0.3116042180E-07
 30.49477196   0.5555278193E-07
 30.62156487   0.7868798946E-07
 30.74835777   0.9987526539E-07
 30.87515068   0.1184980079E-06
 31.00194168   0.1340391833E-06
 31.12873459   0.1461030479E-06
 31.25552750   0.1544319161E-06
 31.38232040   0.1589173451E-06
 31.50911331   0.1596047667E-06
 31.63590622   0.1566913568E-06
 31.76269913   0.1505170104E-06
 31.88949203   0.1415486395E-06
 32.01628494   0.1303582735E-06
 32.14307785   0.1175959525E-06
 32.26987076   0.1039583566E-06
 32.39666367   0.9015472102E-07
 32.52345276   0.7687147274E-07
 32.65024567   0.6473722181E-07
 32.77703857   0.5428966077E-07
 32.90383148   0.4594637204E-07
 33.03062439   0.3998054510E-07
 33.15741730   0.3650316316E-07
 33.28421021   0.3545262572E-07
 33.41100311   0.3659246417E-07
 33.53779602   0.3951748440E-07
 33.66458893   0.4366815887E-07
 33.79138184   0.4835306555E-07
 33.91817474   0.5277809123E-07
 34.04496765   0.5608162112E-07
 34.17176056   0.5737386388E-07
 34.29855347   0.5577883400E-07
 34.42534256   0.5047700569E-07
 34.55213547   0.4074643911E-07
 34.67892838   0.2600088678E-07
 34.80572128   0.5822827109E-08
 34.93251419   -0.2001041821E-07
 35.05930710   -0.5150810622E-07
 35.18610001   -0.8845662336E-07
 35.31289291   -0.1304193376E-06
 35.43968582   -0.1767458286E-06
 35.56647873   -0.2265900463E-06
 35.69327164   -0.2789364260E-06
 35.82006454   -0.3326328226E-06
 35.94685745   -0.3864283826E-06
 36.07365036   -0.4390143715E-06
 36.20044327   -0.4890658261E-06
 36.32723236   -0.5352817993E-06
 36.45402527   -0.5764219964E-06
 36.58081818   -0.6113379527E-06
 36.70761108   -0.6389967098E-06
 36.83440399   -0.6584961056E-06
 36.96119690   -0.6690702321E-06
 37.08798981   -0.6700871609E-06
 37.21478271   -0.6610354149E-06
 37.34157562   -0.6415048119E-06
 37.46836853   -0.6111601465E-06
 37.59516144   -0.5697110055E-06
 37.72195435   -0.5168819257E-06
 37.84874725   -0.4523837163E-06
 37.97554016   -0.3758906075E-06
 38.10232925   -0.2870256992E-06
 38.22912216   -0.1853589282E-06
 38.35591507   -0.7041793992E-07
 38.48270798   0.5828347582E-07
 38.60950089   0.2012001801E-06
 38.73629379   0.3586923469E-06
 38.86308670   0.5309448738E-06
 38.98987961   0.7178709325E-06
 39.11667252   0.9190025594E-06
 39.24346542   0.1133371711E-05
 39.37025833   0.1359386602E-05
 39.49705124   0.1594707669E-05
 39.62384415   0.1836130082E-05
 39.75063705   0.2079478463E-05
 39.87742996   0.2319518899E-05
 40.00421906   0.2549895498E-05
 40.13101196   0.2763096518E-05
 40.25780487   0.2950454473E-05
 40.38459778   0.3102184564E-05
 40.51139069   0.3207461077E-05
 40.63818359   0.3254538115E-05
 40.76497650   0.3230909215E-05
 40.89176941   0.3123505394E-05
 41.01856232   0.2918927066E-05
 41.14535522   0.2603710300E-05
 41.27214813   0.2164608986E-05
 41.39894104   0.1588898954E-05
 41.52573395   0.8646826473E-06
 41.65252686   -0.1880574452E-07
 41.77931976   -0.1070909207E-05
 41.90610886   -0.2299282187E-05
 42.03290176   -0.3709654038E-05
 42.15969467   -0.5305638751E-05
 42.28648758   -0.7088588973E-05
 42.41328049   -0.9057514035E-05
 42.54007339   -0.1120905017E-04
 42.66686630   -0.1353750031E-04
 42.79365921   -0.1603493729E-04
 42.92045212   -0.1869136941E-04
 43.04724503   -0.2149497050E-04
 43.17403793   -0.2443235644E-04
 43.30083084   -0.2748890438E-04
 43.42762375   -0.3064912744E-04
 43.55441666   -0.3389704580E-04
 43.68120956   -0.3721659232E-04
 43.80799866   -0.4059200728E-04
 43.93479156   -0.4400821126E-04
 44.06158447   -0.4745116894E-04
 44.18837738   -0.5090816194E-04
 44.31517029   -0.5436807623E-04
 44.44196320   -0.5782156222E-04
 44.56875610   -0.6126116205E-04
 44.69554901   -0.6468130596E-04
 44.82234192   -0.6807829050E-04
 44.94913483   -0.7145012205E-04
 45.07592773   -0.7479628403E-04
 45.20272064   -0.7811745309E-04
 45.32951355   -0.8141512808E-04
 45.45630646   -0.8469119348E-04
 45.58309937   -0.8794743917E-04
 45.70988846   -0.9118510934E-04
 45.83668137   -0.9440434224E-04
 45.96347427   -0.9760374087E-04
 46.09026718   -0.1007798637E-03
 46.21706009   -0.1039268464E-03
 46.34385300   -0.1070360668E-03
 46.47064590   -0.1100958762E-03
 46.59743881   -0.1130914679E-03
 46.72423172   -0.1160048414E-03
 46.85102463   -0.1188148963E-03
 46.97781754   -0.1214976728E-03
 47.10461044   -0.1240266865E-03
 47.23140335   -0.1263734157E-03
 47.35819626   -0.1285079343E-03
 47.48498917   -0.1303995814E-03
 47.61177826   -0.1320177980E-03
 47.73857117   -0.1333329565E-03
 47.86536407   -0.1343173062E-03
 47.99215698   -0.1349459199E-03
 48.11894989   -0.1351975952E-03
 48.24574280   -0.1350556995E-03
 48.37253571   -0.1345091005E-03
 48.49932861   -0.1335527631E-03
 48.62612152   -0.1321884047E-03
 48.75291443   -0.1304249599E-03
 48.87970734   -0.1282787416E-03
 49.00650024   -0.1257736731E-03
 49.13329315   -0.1229410846E-03
 49.26008606   -0.1198194514E-03
 49.38687897   -0.1164538480E-03
 49.51366806   -0.1128953081E-03
 49.64046097   -0.1091999147E-03
 49.76725388   -0.1054277891E-03
 49.89404678   -0.1016419264E-03
 50.02083969   -0.9790693730E-04
 50.14763260   -0.9428771591E-04
 50.27442551   -0.9084806516E-04
 50.40121841   -0.8764935046E-04
 50.52801132   -0.8474917558E-04
 50.65480423   -0.8220014570E-04
 50.78159714   -0.8004869596E-04
 50.90839005   -0.7833418204E-04
 51.03518295   -0.7708797057E-04
 51.16197586   -0.7633285713E-04
 51.28876877   -0.7608266606E-04
 51.41555786   -0.7634196663E-04
 51.54235077   -0.7710617501E-04
 51.66914368   -0.7836173609E-04
 51.79593658   -0.8008658187E-04
 51.92272949   -0.8225075726E-04
 52.04952240   -0.8481724944E-04
 52.17631531   -0.8774289745E-04
 52.30310822   -0.9097952716E-04
 52.42990112   -0.9447501361E-04
 52.55669403   -0.9817456885E-04
 52.68348694   -0.1020218988E-03
 52.81027985   -0.1059604328E-03
 52.93707275   -0.1099344518E-03
 53.06386566   -0.1138901789E-03
 53.19065857   -0.1177766972E-03
 53.31744766   -0.1215468073E-03
 53.44424057   -0.1251577196E-03
 53.57103348   -0.1285715261E-03
 53.69782639   -0.1317556744E-03
 53.82461929   -0.1346830395E-03
 53.95141220   -0.1373321138E-03
 54.07820511   -0.1396867592E-03
 54.20499802   -0.1417361491E-03
 54.33179092   -0.1434742881E-03
 54.45858383   -0.1448996481E-03
 54.58537674   -0.1460147178E-03
 54.71216965   -0.1468253322E-03
 54.83896255   -0.1473402517E-03
 54.96575546   -0.1475705067E-03
 55.09254837   -0.1475289318E-03
 55.21933746   -0.1472296572E-03
 55.34613037   -0.1466876565E-03
 55.47292328   -0.1459184132E-03
 55.59971619   -0.1449376286E-03
 55.72650909   -0.1437610917E-03
 55.85330200   -0.1424044603E-03
 55.98009491   -0.1408833050E-03
 56.10688782   -0.1392131671E-03
 56.23368073   -0.1374095882E-03
 56.36047363   -0.1354882988E-03
 56.48726654   -0.1334653934E-03
 56.61405945   -0.1313575049E-03
 56.74085236   -0.1291819644E-03
 56.86764526   -0.1269570203E-03
 56.99443817   -0.1247018808E-03
 57.12122726   -0.1224368316E-03
 57.24802017   -0.1201832129E-03
 57.37481308   -0.1179633837E-03
 57.50160599   -0.1158005180E-03
 57.62839890   -0.1137184590E-03
 57.75519180   -0.1117413485E-03
 57.88198471   -0.1098932917E-03
 58.00877762   -0.1081979353E-03
 58.13557053   -0.1066779878E-03
 58.26236343   -0.1053546803E-03
 58.38915634   -0.1042472722E-03
 58.51594925   -0.1033725421E-03
 58.64274216   -0.1027442922E-03
 58.76953506   -0.1023728910E-03
 58.89632797   -0.1022649085E-03
 59.02311707   -0.1024228186E-03
 59.14990997   -0.1028447878E-03
 59.27670288   -0.1035245441E-03
 59.40349579   -0.1044514720E-03
 59.53028870   -0.1056106557E-03
 59.65708160   -0.1069831778E-03
 59.78387451   -0.1085464173E-03
 59.91066742   -0.1102745591E-03
 60.03746033   -0.1121390742E-03
 60.16425323   -0.1141093453E-03
 60.29104614   -0.1161533291E-03
 60.41783905   -0.1182382184E-03
 60.54463196   -0.1203311840E-03
 60.67142487   -0.1224000152E-03
 60.79821777   -0.1244137966E-03
 60.92500687   -0.1263435406E-03
 61.05179977   -0.1281626901E-03
 61.17859268   -0.1298476418E-03
 61.30538559   -0.1313780231E-03
 61.43217850   -0.1327371283E-03
 61.55897141   -0.1339119626E-03
 61.68576431   -0.1348933729E-03
 61.81255722   -0.1356760913E-03
 61.93935013   -0.1362585317E-03
 62.06614304   -0.1366426877E-03
 62.19293594   -0.1368338417E-03
 62.31972885   -0.1368402736E-03
 62.44652176   -0.1366728247E-03
 62.57331467   -0.1363446790E-03
 62.70010757   -0.1358707668E-03
 62.82689667   -0.1352675172E-03
 62.95368958   -0.1345523197E-03
 63.08048248   -0.1337432623E-03
 63.20727539   -0.1328587241E-03
 63.33406830   -0.1319170115E-03
 63.46086121   -0.1309361687E-03
 63.58765411   -0.1299336582E-03
 63.71444702   -0.1289262000E-03
 63.84123993   -0.1279295975E-03
 63.96803284   -0.1269586501E-03
 64.09482574   -0.1260270219E-03
 64.22161865   -0.1251472713E-03
 64.34841156   -0.1243307197E-03
 64.47520447   -0.1235876116E-03
 64.60199738   -0.1229270420E-03
 64.72879028   -0.1223570289E-03
 64.85558319   -0.1218845791E-03
 64.98237610   -0.1215157827E-03
 65.10916901   -0.1212558782E-03
 65.23596191   -0.1211093404E-03
 65.36275482   -0.1210799965E-03
 65.48954773   -0.1211711351E-03
 65.61633301   -0.1213856012E-03
 65.74312592   -0.1217259342E-03
 65.86991882   -0.1221944549E-03
 65.99671173   -0.1227934117E-03
 66.12350464   -0.1235250675E-03
 66.25029755   -0.1243918377E-03
 66.37709045   -0.1253963565E-03
 66.50388336   -0.1265415485E-03
 66.63067627   -0.1278307027E-03
 66.75746918   -0.1292674569E-03
 66.88426208   -0.1308558276E-03
 67.01105499   -0.1326001075E-03
 67.13784790   -0.1345047640E-03
 67.26464081   -0.1365742792E-03
 67.39143372   -0.1388129895E-03
 67.51822662   -0.1412247220E-03
 67.64501953   -0.1438125619E-03
 67.77181244   -0.1465784444E-03
 67.89860535   -0.1495227916E-03
 68.02539825   -0.1526440610E-03
 68.15219116   -0.1559383672E-03
 68.27898407   -0.1593990164E-03
 68.40577698   -0.1630161278E-03
 68.53256989   -0.1667763136E-03
 68.65936279   -0.1706623443E-03
 68.78615570   -0.1746530179E-03
 68.91294861   -0.1787230576E-03
 69.03974152   -0.1828431268E-03
 69.16653442   -0.1869800326E-03
 69.29332733   -0.1910970750E-03
 69.42011261   -0.1951544546E-03
 69.54690552   -0.1991099125E-03
 69.67369843   -0.2029195020E-03
 69.80049133   -0.2065384615E-03
 69.92728424   -0.2099222183E-03
 70.05407715   -0.2130274661E-03
 70.18087006   -0.2158132120E-03
 70.30766296   -0.2182419848E-03
 70.43445587   -0.2202809701E-03
 70.56124878   -0.2219029993E-03
 70.68804169   -0.2230876271E-03
 70.81483459   -0.2238218440E-03
 70.94162750   -0.2241008769E-03
 71.06842041   -0.2239285823E-03
 71.19521332   -0.2233177511E-03
 71.32200623   -0.2222901094E-03
 71.44879913   -0.2208760852E-03
 71.57559204   -0.2191143431E-03
 71.70238495   -0.2170510124E-03
 71.82917786   -0.2147386986E-03
 71.95597076   -0.2122353180E-03
 72.08276367   -0.2096027019E-03
 72.20955658   -0.2069050388E-03
 72.33634949   -0.2042072447E-03
 72.46314240   -0.2015732753E-03
 72.58993530   -0.1990643941E-03
 72.71672821   -0.1967375574E-03
 72.84352112   -0.1946438133E-03
 72.97031403   -0.1928269194E-03
 73.09710693   -0.1913221495E-03
 73.22389221   -0.1901552605E-03
 73.35068512   -0.1893419249E-03
 73.47747803   -0.1888872503E-03
 73.60427094   -0.1887856779E-03
 73.73106384   -0.1890213316E-03
 73.85785675   -0.1895685273E-03
 73.98464966   -0.1903926459E-03
 74.11144257   -0.1914512832E-03
 74.23823547   -0.1926956029E-03
 74.36502838   -0.1940719812E-03
 74.49182129   -0.1955236075E-03
 74.61861420   -0.1969924197E-03
 74.74540710   -0.1984208066E-03
 74.87220001   -0.1997535146E-03
 74.99899292   -0.2009391901E-03
 75.12578583   -0.2019320382E-03
 75.25257874   -0.2026930160E-03
 75.37937164   -0.2031909826E-03
 75.50616455   -0.2034034696E-03
 75.63295746   -0.2033170022E-03
 75.75975037   -0.2029273019E-03
 75.88654327   -0.2022390399E-03
 76.01333618   -0.2012652840E-03
 76.14012909   -0.2000265958E-03
 76.26692200   -0.1985498675E-03
 76.39371490   -0.1968670695E-03
 76.52050781   -0.1950134902E-03
 76.64730072   -0.1930262661E-03
 76.77409363   -0.1909424900E-03
 76.90088654   -0.1887975814E-03
 77.02767181   -0.1866236562E-03
 77.15446472   -0.1844479120E-03
 77.28125763   -0.1822915219E-03
 77.40805054   -0.1801684557E-03
 77.53484344   -0.1780847961E-03
 77.66163635   -0.1760384475E-03
 77.78842926   -0.1740189618E-03
 77.91522217   -0.1720080036E-03
 78.04201508   -0.1699800050E-03
 78.16880798   -0.1679032284E-03
 78.29560089   -0.1657411631E-03
 78.42239380   -0.1634540531E-03
 78.54918671   -0.1610008330E-03
 78.67597961   -0.1583410776E-03
 78.80277252   -0.1554369956E-03
 78.92956543   -0.1522555249E-03
 79.05635834   -0.1487702539E-03
 79.18315125   -0.1449632691E-03
 79.30994415   -0.1408266689E-03
 79.43673706   -0.1363639167E-03
 79.56352997   -0.1315907139E-03
 79.69032288   -0.1265355822E-03
 79.81711578   -0.1212399948E-03
 79.94390869   -0.1157580773E-03
 80.07070160   -0.1101558446E-03
 80.19749451   -0.1045101089E-03
 80.32428741   -0.9890688671E-04
 80.45108032   -0.9343957936E-04
 80.57787323   -0.8820673247E-04
 80.70465851   -0.8330971468E-04
 80.83145142   -0.7885016385E-04
 80.95824432   -0.7492736040E-04
 81.08503723   -0.7163570990E-04
 81.21183014   -0.6906224007E-04
 81.33862305   -0.6728425069E-04
 81.46541595   -0.6636731996E-04
 81.59220886   -0.6636350008E-04
 81.71900177   -0.6730995665E-04
 81.84579468   -0.6922795728E-04
 81.97258759   -0.7212234777E-04
 82.09938049   -0.7598137745E-04
 82.22617340   -0.8077706298E-04
 82.35296631   -0.8646590140E-04
 82.47975922   -0.9299003432E-04
 82.60655212   -0.1002787103E-03
 82.73334503   -0.1082501112E-03
 82.86013794   -0.1168133022E-03
 82.98693085   -0.1258705306E-03
 83.11372375   -0.1353194675E-03
 83.24051666   -0.1450555137E-03
 83.36730957   -0.1549740555E-03
 83.49410248   -0.1649726764E-03
 83.62089539   -0.1749530347E-03
 83.74768829   -0.1848226384E-03
 83.87448120   -0.1944962569E-03
 84.00127411   -0.2038969687E-03
 84.12806702   -0.2129570203E-03
 84.25485992   -0.2216181747E-03
 84.38165283   -0.2298317559E-03
 84.50843811   -0.2375584445E-03
 84.63523102   -0.2447676379E-03
 84.76202393   -0.2514365769E-03
 84.88881683   -0.2575494000E-03
 85.01560974   -0.2630958043E-03
 85.14240265   -0.2680697944E-03
 85.26919556   -0.2724683727E-03
 85.39598846   -0.2762901131E-03
 85.52278137   -0.2795341425E-03
 85.64957428   -0.2821988892E-03
 85.77636719   -0.2842813847E-03
 85.90316010   -0.2857765357E-03
 86.02995300   -0.2866769210E-03
 86.15674591   -0.2869727323E-03
 86.28353882   -0.2866519208E-03
 86.41033173   -0.2857010113E-03
 86.53712463   -0.2841056848E-03
 86.66391754   -0.2818520297E-03
 86.79071045   -0.2789276477E-03
 86.91750336   -0.2753232257E-03
 87.04429626   -0.2710337867E-03
 87.17108917   -0.2660602913E-03
 87.29788208   -0.2604109468E-03
 87.42467499   -0.2541026042E-03
 87.55146790   -0.2471616026E-03
 87.67826080   -0.2396248165E-03
 87.80505371   -0.2315399615E-03
 87.93184662   -0.2229657839E-03
 88.05863953   -0.2139718272E-03
 88.18543243   -0.2046377631E-03
 88.31221771   -0.1950523874E-03
 88.43901062   -0.1853121066E-03
 88.56580353   -0.1755192061E-03
 88.69259644   -0.1657797548E-03
 88.81938934   -0.1562011748E-03
 88.94618225   -0.1468897826E-03
 89.07297516   -0.1379479945E-03
 89.19976807   -0.1294717804E-03
 89.32656097   -0.1215479351E-03
 89.45335388   -0.1142515976E-03
 89.58014679   -0.1076440603E-03
 89.70693970   -0.1017707909E-03
 89.83373260   -0.9665994730E-04
 89.96052551   -0.9232125740E-04
 90.08731842   -0.8874545165E-04
 90.21411133   -0.8590422658E-04
 90.34090424   -0.8375079778E-04
 90.46769714   -0.8222086763E-04
 90.59449005   -0.8123433508E-04
 90.72128296   -0.8069726755E-04
 90.84807587   -0.8050444740E-04
 90.97486877   -0.8054220234E-04
 91.10166168   -0.8069156320E-04
 91.22845459   -0.8083158173E-04
 91.35524750   -0.8084265573E-04
 91.48204041   -0.8060992695E-04
 91.60883331   -0.8002649702E-04
 91.73562622   -0.7899633783E-04
 91.86241913   -0.7743705646E-04
 91.98921204   -0.7528203423E-04
 92.11599731   -0.7248228212E-04
 92.24279022   -0.6900759763E-04
 92.36958313   -0.6484740152E-04
 92.49637604   -0.6001065049E-04
 92.62316895   -0.5452555342E-04
 92.74996185   -0.4843848728E-04
 92.87675476   -0.4181246914E-04
 93.00354767   -0.3472522440E-04
 93.13034058   -0.2726676394E-04
 93.25713348   -0.1953678111E-04
 93.38392639   -0.1164165496E-04
 93.51071930   -0.3691463917E-05
 93.63751221   0.4203108801E-05
 93.76430511   0.1193385742E-04
 93.89109802   0.1939788308E-04
 94.01789093   0.2650034730E-04
 94.14468384   0.3315681533E-04
 94.27147675   0.3929531886E-04
 94.39826965   0.4485794852E-04
 94.52506256   0.4980205267E-04
 94.65185547   0.5410095400E-04
 94.77864838   0.5774418969E-04
 94.90544128   0.6073728218E-04
 95.03223419   0.6310104800E-04
 95.15902710   0.6487052451E-04
 95.28582001   0.6609345292E-04
 95.41261292   0.6682855019E-04
 95.53940582   0.6714340270E-04
 95.66619873   0.6711225433E-04
 95.79299164   0.6681361992E-04
 95.91977692   0.6632792793E-04
 96.04656982   0.6573513383E-04
 96.17336273   0.6511244283E-04
 96.30015564   0.6453221431E-04
 96.42694855   0.6406013563E-04
 96.55374146   0.6375360681E-04
 96.68053436   0.6366044545E-04
 96.80732727   0.6381802814E-04
 96.93412018   0.6425268657E-04
 97.06091309   0.6497957656E-04
 97.18770599   0.6600278721E-04
 97.31449890   0.6731593021E-04
 97.44129181   0.6890291843E-04
 97.56808472   0.7073904271E-04
 97.69487762   0.7279230340E-04
 97.82167053   0.7502483641E-04
 97.94846344   0.7739447756E-04
 98.07525635   0.7985631237E-04
 98.20204926   0.8236426947E-04
 98.32884216   0.8487255400E-04
 98.45563507   0.8733696450E-04
 98.58242798   0.8971607167E-04
 98.70922089   0.9197208419E-04
 98.83601379   0.9407156904E-04
 98.96280670   0.9598586621E-04
 99.08959961   0.9769124881E-04
 99.21639252   0.9916892304E-04
 99.34318542   0.1004046717E-03
 99.46997833   0.1013884757E-03
 99.59677124   0.1021138887E-03
 99.72355652   0.1025773745E-03
 99.85034943   0.1027775361E-03
 99.97714233   0.1027144535E-03
 100.1039352   0.1023889854E-03
 100.2307281   0.1018021940E-03
 100.3575211   0.1009549233E-03
 100.4843140   0.9984747885E-04
 100.6111069   0.9847954789E-04
 100.7378998   0.9685024270E-04
 100.8646927   0.9495834820E-04
 100.9914856   0.9280272934E-04
 101.1182785   0.9038284770E-04
 101.2450714   0.8769945271E-04
 101.3718643   0.8475523646E-04
 101.4986572   0.8155562682E-04
 101.6254501   0.7810950774E-04
 101.7522430   0.7442984497E-04
 101.8790359   0.7053428999E-04
 102.0058289   0.6644554378E-04
 102.1326218   0.6219164061E-04
 102.2594147   0.5780591528E-04
 102.3862076   0.5332682485E-04
 102.5130005   0.4879749758E-04
 102.6397934   0.4426508167E-04
 102.7665863   0.3977981032E-04
 102.8933792   0.3539393219E-04
 103.0201721   0.3116043081E-04
 103.1469650   0.2713161302E-04
 103.2737579   0.2335760473E-04
 103.4005508   0.1988483018E-04
 103.5273361   0.1675447493E-04
 103.6541290   0.1400106703E-04
 103.7809219   0.1165112735E-04
 103.9077148   0.9722050891E-05
 104.0345078   0.8221183634E-05
 104.1613007   0.7145184554E-05
 104.2880936   0.6479690455E-05
 104.4148865   0.6199299150E-05
 104.5416794   0.6267889603E-05
 104.6684723   0.6639293588E-05
 104.7952652   0.7258293408E-05
 104.9220581   0.8061881999E-05
 105.0488510   0.8980873645E-05
 105.1756439   0.9941666576E-05
 105.3024368   0.1086820612E-04
 105.4292297   0.1168405015E-04
 105.5560226   0.1231447004E-04
 105.6828156   0.1268851247E-04
 105.8096085   0.1274096485E-04
 105.9364014   0.1241414884E-04
 106.0631943   0.1165949652E-04
 106.1899872   0.1043879638E-04
 106.3167801   0.8725177395E-05
 106.4435730   0.6503683835E-05
 106.5703659   0.3771481943E-05
 106.6971588   0.5377198704E-06
 106.8239517   -0.3177022791E-05
 106.9507446   -0.7341590390E-05
 107.0775375   -0.1191542106E-04
 107.2043304   -0.1684998460E-04
 107.3311157   -0.2209038394E-04
 107.4579086   -0.2757710718E-04
 107.5847015   -0.3324785212E-04
 107.7114944   -0.3903932520E-04
 107.8382874   -0.4488900595E-04
 107.9650803   -0.5073673310E-04
 108.0918732   -0.5652615073E-04
 108.2186661   -0.6220590876E-04
 108.3454590   -0.6773059431E-04
 108.4722519   -0.7306136104E-04
 108.5990448   -0.7816628204E-04
 108.7258377   -0.8302040806E-04
 108.8526306   -0.8760548371E-04
 108.9794235   -0.9190951823E-04
 109.1062164   -0.9592599963E-04
 109.2330093   -0.9965305799E-04
 109.3598022   -0.1030924250E-03
 109.4865952   -0.1062483570E-03
 109.6133881   -0.1091265149E-03
 109.7401810   -0.1117329084E-03
 109.8669739   -0.1140729146E-03
 109.9937668   -0.1161504915E-03
 110.1205597   -0.1179674073E-03
 110.2473526   -0.1195228833E-03
 110.3741455   -0.1208133108E-03
 110.5009384   -0.1218322504E-03
 110.6277313   -0.1225706801E-03
 110.7545242   -0.1230174530E-03
 110.8813171   -0.1231599308E-03
 111.0081024   -0.1229848713E-03
 111.1348953   -0.1224793959E-03
 111.2616882   -0.1216320015E-03
 111.3884811   -0.1204337750E-03