 -4.500000000   0.3449413258E-17
 -4.373207569   0.3449436626E-17
 -4.246414661   0.3449479846E-17
 -4.119622231   0.3449538576E-17
 -3.992829323   0.3449607439E-17
 -3.866036654   0.3449679403E-17
 -3.739243984   0.3449748886E-17
 -3.612451553   0.3449809064E-17
 -3.485658884   0.3449856627E-17
 -3.358866215   0.3449888887E-17
 -3.232073545   0.3449907085E-17
 -3.105280876   0.3449913082E-17
 -2.978488207   0.3449912048E-17
 -2.851695538   0.3449908325E-17
 -2.724902868   0.3449909359E-17
 -2.598110199   0.3449918665E-17
 -2.471317530   0.3449942033E-17
 -2.344524860   0.3449981117E-17
 -2.217732191   0.3450036125E-17
 -2.090939522   0.3450105194E-17
 -1.964146972   0.3450186051E-17
 -1.837354302   0.3450272285E-17
 -1.710561633   0.3450356037E-17
 -1.583768964   0.3450424486E-17
 -1.456976295   0.3450466259E-17
 -1.330183744   0.3450474944E-17
 -1.203391075   0.3450462950E-17
 -1.076598406   0.3450472876E-17
 -0.9498057365   0.3450583098E-17
 -0.8230130672   0.3450876747E-17
 -0.6962204576   0.3451372228E-17
 -0.5694277883   0.3451907207E-17
 -0.4426351190   0.3452029423E-17
 -0.3158424795   0.3450980765E-17
 -0.1890498251   0.3447902206E-17
 -0.6225717068E-01   0.3442358441E-17
 0.6453548372E-01   0.3435144186E-17
 0.1913281381   0.3429133271E-17
 0.3181207776   0.3429659151E-17
 0.4449134469   0.3443779951E-17
 0.5717061162   0.3477890398E-17
 0.6984987259   0.3533666773E-17
 0.8252913952   0.3603235971E-17
 0.9520840645   0.3665473868E-17
 1.078876734   0.3686089690E-17
 1.205669403   0.3623964290E-17
 1.332461953   0.3444728934E-17
 1.459254622   0.3139739998E-17
 1.586047292   0.2745105776E-17
 1.712839961   0.2352474365E-17
 1.839632630   0.2102666234E-17
 1.966425300   0.2156237759E-17
 2.093217850   0.2642158392E-17
 2.220010519   0.3595560976E-17
 2.346803188   0.4904934946E-17
 2.473595858   0.6293658698E-17
 2.600388527   0.7356451368E-17
 2.727181196   0.7656195153E-17
 2.853973866   0.6862946730E-17
 2.980766535   0.4891845227E-17
 3.107559204   0.1980718925E-17
 3.234351873   -0.1347538222E-17
 3.361144543   -0.4461602947E-17
 3.487936974   -0.6905924139E-17
 3.614729643   -0.8696025703E-17
 3.741522312   -0.1047855774E-16
 3.868314981   -0.1340335423E-16
 3.995107651   -0.1861361354E-16
 4.121900558   -0.2638734774E-16
 4.248692989   -0.3513455938E-16
 4.375485420   -0.4061861134E-16
 4.502278328   -0.3585881888E-16
 4.629070759   -0.1211884945E-16
 4.755863667   0.3884290271E-16
 4.882656097   0.1214721479E-15
 5.009449005   0.2327440075E-15
 5.136241436   0.3592010767E-15
 5.263034344   0.4759848708E-15
 5.389826775   0.5489861936E-15
 5.516619682   0.5406786532E-15
 5.643412113   0.4192879528E-15
 5.770205021   0.1698677062E-15
 5.896997452   -0.1951223112E-15
 6.023790359   -0.6287032700E-15
 6.150582790   -0.1048602860E-14
 6.277375221   -0.1344825740E-14
 6.404168129   -0.1396024329E-14
 6.530960560   -0.1093164205E-14
 6.657753468   -0.3670262052E-15
 6.784545898   0.7853975890E-15
 6.911338806   0.2281183606E-14
 7.038131237   0.3943580844E-14
 7.164924145   0.5509613897E-14
 7.291716576   0.6654608047E-14
 7.418509483   0.7032417776E-14
 7.545301914   0.6327540251E-14
 7.672094822   0.4313173930E-14
 7.798887253   0.9078495952E-15
 7.925679684   -0.3777337499E-14
 8.052472115   -0.9408653937E-14
 8.179265022   -0.1542367376E-13
 8.306057930   -0.2105449129E-13
 8.432850838   -0.2538324131E-13
 8.559642792   -0.2743007271E-13
 8.686435699   -0.2627015257E-13
 8.813228607   -0.2117209165E-13
 8.940021515   -0.1174577793E-13
 9.066813469   0.1916809090E-14
 9.193606377   0.1912763025E-13
 9.320399284   0.3853724794E-13
 9.447192192   0.5813935894E-13
 9.573984146   0.7536303531E-13
 9.700777054   0.8726390243E-13
 9.827569962   0.9081550480E-13
 9.954361916   0.8329006430E-13
 10.08115482   0.6270316568E-13
 10.20794773   0.2828313823E-13
 10.33474064   -0.1908770620E-13
 10.46153259   -0.7652258276E-13
 10.58832550   -0.1389379605E-12
 10.71511841   -0.1990847401E-12
 10.84191132   -0.2478579950E-12
 10.96870327   -0.2749204944E-12
 11.09549618   -0.2696470976E-12
 11.22228909   -0.2223622491E-12
 11.34908199   -0.1258012656E-12
 11.47587395   0.2331363828E-13
 11.60266685   0.2227295361E-12
 11.72945976   0.4633282148E-12
 11.85625172   0.7281937640E-12
 11.98304462   0.9922762481E-12
 12.10983753   0.1222826853E-11
 12.23663044   0.1380744802E-11
 12.36342239   0.1422912135E-11
 12.49021530   0.1305530228E-11
 12.61700821   0.9883669404E-12
 12.74380112   0.4397375476E-12
 12.87059307   -0.3580710760E-12
 12.99738598   -0.1403318000E-11
 13.12417889   -0.2669748754E-11
 13.25097084   -0.4102505662E-11
 13.37776375   -0.5615593494E-11
 13.50455666   -0.7091482349E-11
 13.63134956   -0.8383376458E-11
 13.75814152   -0.9320565153E-11
 13.88493443   -0.9717089980E-11
 14.01172733   -0.9383761129E-11
 14.13852024   -0.8143218738E-11
 14.26531219   -0.5847475715E-11
 14.39210510   -0.2396996664E-11
 14.51889801   0.2239925910E-11
 14.64569092   0.8009053490E-11
 14.77248287   0.1475507563E-10
 14.89927578   0.2221133520E-10
 15.02606869   0.2999621038E-10
 15.15286064   0.3761775266E-10
 15.27965355   0.4448785090E-10
 15.40644646   0.4994654343E-10
 15.53323936   0.5329652691E-10
 15.66003132   0.5384694426E-10
 15.78682423   0.5096474284E-10
 15.91361713   0.4413097665E-10
 16.04040909   0.3299855181E-10
 16.16720200   0.1744734045E-10
 16.29399490   -0.2367908170E-11
 16.42078781   -0.2598150688E-10
 16.54758072   -0.5259704131E-10
 16.67437363   -0.8108772681E-10
 16.80116463   -0.1100197156E-09
 16.92795753   -0.1376998654E-09
 17.05475044   -0.1622480483E-09
 17.18154335   -0.1816920780E-09
 17.30833626   -0.1940816119E-09
 17.43512917   -0.1976156461E-09
 17.56192207   -0.1907767833E-09
 17.68871498   -0.1724636267E-09
 17.81550598   -0.1421127382E-09
 17.94229889   -0.9980040405E-10
 18.06909180   -0.4631570821E-10
 18.19588470   0.1680353599E-10
 18.32267761   0.8727796957E-10
 18.44947052   0.1621412865E-09
 18.57626343   0.2378436614E-09
 18.70305443   0.3104021484E-09
 18.82984734   0.3755932232E-09
 18.95664024   0.4291793865E-09
 19.08343315   0.4671580900E-09
 19.21022606   0.4860198910E-09
 19.33701897   0.4829998623E-09
 19.46381187   0.4563059930E-09
 19.59060478   0.4053079816E-09
 19.71739578   0.3306713792E-09
 19.84418869   0.2344242855E-09
 19.97098160   0.1199467331E-09
 20.09777451   -0.8122170471E-11
 20.22456741   -0.1440604996E-09
 20.35136032   -0.2813180522E-09
 20.47815323   -0.4128395681E-09
 20.60494423   -0.5314413354E-09
 20.73173714   -0.6302224853E-09
 20.85853004   -0.7029867799E-09
 20.98532295   -0.7446516737E-09
 21.11211586   -0.7516153255E-09
 21.23890877   -0.7220594123E-09
 21.36570168   -0.6561611809E-09
 21.49249458   -0.5561969219E-09
 21.61928558   -0.4265227893E-09
 21.74607849   -0.2734256432E-09
 21.87287140   -0.1048439252E-09
 21.99966431   0.7003090469E-10
 22.12645721   0.2412565425E-09
 22.25325012   0.3987189467E-09
 22.38004303   0.5327568386E-09
 22.50683403   0.6347933290E-09
 22.63362694   0.6979350431E-09
 22.76041985   0.7174968397E-09
 22.88721275   0.6914119277E-09
 23.01400566   0.6204938230E-09
 23.14079857   0.5085230015E-09
 23.26759148   0.3621402900E-09
 23.39438438   0.1905400143E-09
 23.52117538   0.4975011288E-11
 23.64796829   -0.1819121104E-09
 23.77476120   -0.3568906282E-09
 23.90155411   -0.5070360243E-09
 24.02834702   -0.6206558600E-09
 24.15513992   -0.6881878956E-09
 24.28193283   -0.7030029892E-09
 24.40872383   -0.6620500814E-09
 24.53551674   -0.5662827429E-09
 24.66230965   -0.4208231819E-09
 24.78910255   -0.2348260197E-09
 24.91589546   -0.2103471390E-10
 25.04268837   0.2049742043E-09
 25.16948128   0.4258156050E-09
 25.29627419   0.6235532646E-09
 25.42306519   0.7811077896E-09
 25.54985809   0.8837257037E-09
 25.67665100   0.9204185747E-09
 25.80344391   0.8852468758E-09
 25.93023682   0.7783531597E-09
 26.05702972   0.6066306901E-09
 26.18382263   0.3839493723E-09
 26.31061363   0.1308690240E-09
 26.43740654   -0.1261963728E-09
 26.56419945   -0.3563654372E-09
 26.69099236   -0.5261907576E-09
 26.81778526   -0.6020047238E-09
 26.94457817   -0.5526011870E-09
 27.07137108   -0.3520916614E-09
 27.19816399   0.1719735465E-10
 27.32495499   0.5620357513E-09
 27.45174789   0.1275964556E-08
 27.57854080   0.2137548583E-08
 27.70533371   0.3109416946E-08
 27.83212662   0.4138214660E-08
 27.95891953   0.5155623040E-08
 28.08571243   0.6080479675E-08
 28.21250343   0.6822034049E-08
 28.33929634   0.7284265635E-08
 28.46608925   0.7371143695E-08
 28.59288216   0.6992610935E-08
 28.71967506   0.6071049885E-08
 28.84646797   0.4547869636E-08
 28.97326088   0.2389898501E-08
 29.10005379   -0.4048786029E-09
 29.22684479   -0.3802562709E-08
 29.35363770   -0.7730036167E-08
 29.48043060   -0.1207335654E-07
 29.60722351   -0.1667826055E-07
 29.73401642   -0.2135283417E-07
 29.86080933   -0.2587255210E-07
 29.98760223   -0.2998763904E-07
 30.11439323   -0.3343258470E-07
 30.24118614   -0.3593756404E-07
 30.36797905   -0.3724132824E-07
 30.49477196   -0.3710512786E-07
 30.62156487   -0.3532695558E-07
 30.74835777   -0.3175549779E-07
 30.87515068   -0.2630309837E-07
 31.00194168   -0.1895689472E-07
 31.12873459   -0.9787580524E-08
 31.25552750   0.1044956344E-08
 31.38232040   0.1328958010E-07
 31.50911331   0.2660588017E-07
 31.63590622   0.4057033820E-07
 31.76269913   0.5468673336E-07
 31.88949203   0.6840074462E-07
 32.01628494   0.8111825167E-07
 32.14307785   0.9222677022E-07
 32.26987076   0.1011194897E-06
 32.39666367   0.1072207070E-06
 32.52345276   0.1100119107E-06
 32.65024567   0.1090573249E-06
 32.77703857   0.1040276061E-06
 32.90383148   0.9472094575E-07
 33.03062439   0.8108018790E-07
 33.15741730   0.6320521351E-07
 33.28421021   0.4135975118E-07
 33.41100311   0.1597219246E-07
 33.53779602   -0.1237010760E-07
 33.66458893   -0.4293294253E-07
 33.79138184   -0.7485355269E-07
 33.91817474   -0.1071647233E-06
 34.04496765   -0.1388238502E-06
 34.17176056   -0.1687460411E-06
 34.29855347   -0.1958399736E-06
 34.42534256   -0.2190453330E-06
 34.55213547   -0.2373703865E-06
 34.67892838   -0.2499281209E-06
 34.80572128   -0.2559697521E-06
 34.93251419   -0.2549141414E-06
 35.05930710   -0.2463721955E-06
 35.18610001   -0.2301647726E-06
 35.31289291   -0.2063342635E-06
 35.43968582   -0.1751485996E-06
 35.56647873   -0.1370980414E-06
 35.69327164   -0.9288473279E-07
 35.82006454   -0.4340564530E-07
 35.94685745   0.1027061813E-07
 36.07365036   0.6693199595E-07
 36.20044327   0.1252551414E-06
 36.32723236   0.1838403847E-06
 36.45402527   0.2412480740E-06
 36.58081818   0.2960352958E-06
 36.70761108   0.3467914951E-06
 36.83440399   0.3921720975E-06
 36.96119690   0.4309293331E-06
 37.08798981   0.4619390666E-06
 37.21478271   0.4842239036E-06
 37.34157562   0.4969714951E-06
 37.46836853   0.4995487188E-06
 37.59516144   0.4915117415E-06
 37.72195435   0.4726114184E-06
 37.84874725   0.4427961358E-06
 37.97554016   0.4022112421E-06
 38.10232925   0.3511962063E-06
 38.22912216   0.2902800702E-06
 38.35591507   0.2201757781E-06
 38.48270798   0.1417733131E-06
 38.60950089   0.5613258125E-07
 38.73629379   -0.3552455752E-07
 38.86308670   -0.1318228300E-06
 38.98987961   -0.2312431064E-06
 39.11667252   -0.3321331405E-06
 39.24346542   -0.4327204977E-06
 39.37025833   -0.5311276823E-06
 39.49705124   -0.6253906122E-06
 39.62384415   -0.7134806310E-06
 39.75063705   -0.7933305710E-06
 39.87742996   -0.8628651926E-06
 40.00421906   -0.9200358022E-06
 40.13101196   -0.9628588487E-06
 40.25780487   -0.9894582718E-06
 40.38459778   -0.9981094991E-06
 40.51139069   -0.9872852615E-06
 40.63818359   -0.9557010117E-06
 40.76497650   -0.9023573284E-06
 40.89176941   -0.8265794804E-06
 41.01856232   -0.7280499403E-06
 41.14535522   -0.6068331118E-06
 41.27214813   -0.4633901369E-06
 41.39894104   -0.2985821084E-06
 41.52573395   -0.1136605903E-06
 41.65252686   0.8975509047E-07
 41.77931976   0.3097145793E-06
 41.90610886   0.5439864026E-06
 42.03290176   0.7901201116E-06
 42.15969467   0.1045519184E-05
 42.28648758   0.1307522325E-05
 42.41328049   0.1573490977E-05
 42.54007339   0.1840897653E-05
 42.66686630   0.2107415867E-05
 42.79365921   0.2371002665E-05
 42.92045212   0.2629975597E-05
 43.04724503   0.2883074558E-05
 43.17403793   0.3129511470E-05
 43.30083084   0.3369000979E-05
 43.42762375   0.3601771141E-05
 43.55441666   0.3828554782E-05
 43.68120956   0.4050558346E-05
 43.80799866   0.4269409146E-05
 43.93479156   0.4487086244E-05
 44.06158447   0.4705830179E-05
 44.18837738   0.4928042017E-05
 44.31517029   0.5156169664E-05
 44.44196320   0.5392588719E-05
 44.56875610   0.5639483788E-05
 44.69554901   0.5898727068E-05
 44.82234192   0.6171772839E-05
 44.94913483   0.6459559700E-05
 45.07592773   0.6762427802E-05
 45.20272064   0.7080063369E-05
 45.32951355   0.7411460047E-05
 45.45630646   0.7754909348E-05
 45.58309937   0.8108014299E-05
 45.70988846   0.8467733096E-05
 45.83668137   0.8830444131E-05
 45.96347427   0.9192034668E-05
 46.09026718   0.9548014532E-05
 46.21706009   0.9893637980E-05
 46.34385300   0.1022404194E-04
 46.47064590   0.1053439064E-04
 46.59743881   0.1082001927E-04
 46.72423172   0.1107657499E-04
 46.85102463   0.1130015517E-04
 46.97781754   0.1148741921E-04
 47.10461044   0.1163569232E-04
 47.23140335   0.1174304634E-04
 47.35819626   0.1180835898E-04
 47.48498917   0.1183134282E-04
 47.61177826   0.1181254629E-04
 47.73857117   0.1175335183E-04
 47.86536407   0.1165590857E-04
 47.99215698   0.1152309051E-04
 48.11894989   0.1135840739E-04
 48.24574280   0.1116590283E-04
 48.37253571   0.1095004791E-04
 48.49932861   0.1071563020E-04
 48.62612152   0.1046762736E-04
 48.75291443   0.1021110438E-04
 48.87970734   0.9951094398E-05
 49.00650024   0.9692494132E-05
 49.13329315   0.9439992027E-05
 49.26008606   0.9197970940E-05
 49.38687897   0.8970459021E-05
 49.51366806   0.8761081517E-05
 49.64046097   0.8573029845E-05
 49.76725388   0.8409045222E-05
 49.89404678   0.8271401384E-05
 50.02083969   0.8161927326E-05
 50.14763260   0.8082015484E-05
 50.27442551   0.8032642654E-05
 50.40121841   0.8014387276E-05
 50.52801132   0.8027455806E-05
 50.65480423   0.8071709090E-05
 50.78159714   0.8146673281E-05
 50.90839005   0.8251560757E-05
 51.03518295   0.8385266483E-05
 51.16197586   0.8546381650E-05
 51.28876877   0.8733182767E-05
 51.41555786   0.8943623470E-05
 51.54235077   0.9175329069E-05
 51.66914368   0.9425564713E-05
 51.79593658   0.9691246305E-05
 51.92272949   0.9968911399E-05
 52.04952240   0.1025473466E-04
 52.17631531   0.1054452696E-04
 52.30310822   0.1083375719E-04
 52.42990112   0.1111758775E-04
 52.55669403   0.1139091728E-04
 52.68348694   0.1164844889E-04
 52.81027985   0.1188477472E-04
 52.93707275   0.1209446873E-04
 53.06386566   0.1227219127E-04
 53.19065857   0.1241282189E-04
 53.31744766   0.1251158028E-04
 53.44424057   0.1256416454E-04
 53.57103348   0.1256688756E-04
 53.69782639   0.1251680624E-04
 53.82461929   0.1241184327E-04
 53.95141220   0.1225090364E-04
 54.07820511   0.1203394640E-04
 54.20499802   0.1176207843E-04
 54.33179092   0.1143756344E-04
 54.45858383   0.1106386480E-04
 54.58537674   0.1064559819E-04
 54.71216965   0.1018850708E-04
 54.83896255   0.9699372640E-05
 54.96575546   0.9185902854E-05
 55.09254837   0.8656611499E-05
 55.21933746   0.8120638086E-05
 55.34613037   0.7587581422E-05
 55.47292328   0.7067308161E-05
 55.59971619   0.6569752259E-05
 55.72650909   0.6104695331E-05
 55.85330200   0.5681571565E-05
 55.98009491   0.5309274002E-05
 56.10688782   0.4995959443E-05
 56.23368073   0.4748882475E-05
 56.36047363   0.4574252671E-05
 56.48726654   0.4477108178E-05
 56.61405945   0.4461212939E-05
 56.74085236   0.4528994396E-05
 56.86764526   0.4681507107E-05
 56.99443817   0.4918413197E-05
 57.12122726   0.5238006906E-05
 57.24802017   0.5637254162E-05
 57.37481308   0.6111848052E-05
 57.50160599   0.6656310688E-05
 57.62839890   0.7264088254E-05
 57.75519180   0.7927666957E-05
 57.88198471   0.8638700820E-05
 58.00877762   0.9388142644E-05
 58.13557053   0.1016638180E-04
 58.26236343   0.1096338838E-04
 58.38915634   0.1176884962E-04
 58.51594925   0.1257230451E-04
 58.64274216   0.1336327932E-04
 58.76953506   0.1413143036E-04
 58.89632797   0.1486665406E-04
 59.02311707   0.1555922609E-04
 59.14990997   0.1619990871E-04
 59.27670288   0.1678007538E-04
 59.40349579   0.1729180804E-04
 59.53028870   0.1772800897E-04
 59.65708160   0.1808250272E-04
 59.78387451   0.1835011790E-04
 59.91066742   0.1852676905E-04
 60.03746033   0.1860955126E-04
 60.16425323   0.1859677286E-04
 60.29104614   0.1848802640E-04
 60.41783905   0.1828421591E-04
 60.54463196   0.1798756057E-04
 60.67142487   0.1760159284E-04
 60.79821777   0.1713113670E-04
 60.92500687   0.1658224392E-04
 61.05179977   0.1596213770E-04
 61.17859268   0.1527907807E-04
 61.30538559   0.1454227186E-04
 61.43217850   0.1376171076E-04
 61.55897141   0.1294800950E-04
 61.68576431   0.1211221479E-04
 61.81255722   0.1126563075E-04
 61.93935013   0.1041961696E-04
 62.06614304   0.9585363841E-05
 62.19293594   0.8773732588E-05
 62.31972885   0.7995042324E-05
 62.44652176   0.7258899132E-05
 62.57331467   0.6574039162E-05
 62.70010757   0.5948198577E-05
 62.82689667   0.5387998044E-05
 62.95368958   0.4898873158E-05
 63.08048248   0.4485015779E-05
 63.20727539   0.4149342203E-05
 63.33406830   0.3893541361E-05
 63.46086121   0.3718081871E-05
 63.58765411   0.3622276381E-05
 63.71444702   0.3604404128E-05
 63.84123993   0.3661781420E-05
 63.96803284   0.3790887831E-05
 64.09482574   0.3987525815E-05
 64.22161865   0.4246928711E-05
 64.34841156   0.4563911261E-05
 64.47520447   0.4932983757E-05
 64.60199738   0.5348495051E-05
 64.72879028   0.5804713965E-05
 64.85558319   0.6295931598E-05
 64.98237610   0.6816533187E-05
 65.10916901   0.7361049938E-05
 65.23596191   0.7924171769E-05
 65.36275482   0.8500786862E-05
 65.48954773   0.9085980309E-05
 65.61633301   0.9675008187E-05
 65.74312592   0.1026329846E-04
 65.86991882   0.1084641372E-04
 65.99671173   0.1142005112E-04
 66.12350464   0.1198001974E-04
 66.25029755   0.1252223774E-04
 66.37709045   0.1304274701E-04
 66.50388336   0.1353773769E-04
 66.63067627   0.1400360270E-04
 66.75746918   0.1443699966E-04
 66.88426208   0.1483490541E-04
 67.01105499   0.1519474426E-04
 67.13784790   0.1551446258E-04
 67.26464081   0.1579263153E-04
 67.39143372   0.1602854172E-04
 67.51822662   0.1622229684E-04
 67.64501953   0.1637489368E-04
 67.77181244   0.1648824764E-04
 67.89860535   0.1656522727E-04
 68.02539825   0.1660963062E-04
 68.15219116   0.1662614704E-04
 68.27898407   0.1662025170E-04
 68.40577698   0.1659811642E-04
 68.53256989   0.1656640779E-04
 68.65936279   0.1653213621E-04
 68.78615570   0.1650243757E-04
 68.91294861   0.1648433681E-04
 69.03974152   0.1648452781E-04
 69.16653442   0.1650913691E-04
 69.29332733   0.1656349195E-04
 69.42011261   0.1665194759E-04
 69.54690552   0.1677770706E-04
 69.67369843   0.1694267667E-04
 69.80049133   0.1714741848E-04
 69.92728424   0.1739109030E-04
 70.05407715   0.1767146932E-04
 70.18087006   0.1798501580E-04
 70.30766296   0.1832701855E-04
 70.43445587   0.1869176594E-04
 70.56124878   0.1907272599E-04
 70.68804169   0.1946282646E-04
 70.81483459   0.1985470954E-04
 70.94162750   0.2024101377E-04
 71.06842041   0.2061465239E-04
 71.19521332   0.2096907519E-04
 71.32200623   0.2129851964E-04
 71.44879913   0.2159820542E-04
 71.57559204   0.2186450183E-04
 71.70238495   0.2209502782E-04
 71.82917786   0.2228870289E-04
 71.95597076   0.2244573625E-04
 72.08276367   0.2256752487E-04
 72.20955658   0.2265652438E-04
 72.33634949   0.2271606172E-04
 72.46314240   0.2275007319E-04
 72.58993530   0.2276284795E-04
 72.71672821   0.2275872248E-04
 72.84352112   0.2274173858E-04
 72.97031403   0.2271540689E-04
 73.09710693   0.2268233948E-04
 73.22389221   0.2264407158E-04
 73.35068512   0.2260082329E-04
 73.47747803   0.2255136314E-04
 73.60427094   0.2249296631E-04
 73.73106384   0.2242140545E-04
 73.85785675   0.2233102532E-04
 73.98464966   0.2221491923E-04
 74.11144257   0.2206515637E-04
 74.23823547   0.2187311657E-04
 74.36502838   0.2162979399E-04
 74.49182129   0.2132623740E-04
 74.61861420   0.2095397213E-04
 74.74540710   0.2050542389E-04
 74.87220001   0.1997432628E-04
 74.99899292   0.1935615182E-04
 75.12578583   0.1864847036E-04
 75.25257874   0.1785118366E-04
 75.37937164   0.1696681284E-04
 75.50616455   0.1600056021E-04
 75.63295746   0.1496041477E-04
 75.75975037   0.1385701398E-04
 75.88654327   0.1270351368E-04
 76.01333618   0.1151532069E-04
 76.14012909   0.1030970816E-04
 76.26692200   0.9105425306E-05
 76.39371490   0.7922173609E-05
 76.52050781   0.6780051990E-05
 76.64730072   0.5698988389E-05
 76.77409363   0.4698162229E-05
 76.90088654   0.3795412340E-05
 77.02767181   0.3006706720E-05
 77.15446472   0.2345627763E-05
 77.28125763   0.1822960712E-05
 77.40805054   0.1446324859E-05
 77.53484344   0.1219947762E-05
 77.66163635   0.1144485282E-05
 77.78842926   0.1217039880E-05
 77.91522217   0.1431183364E-05
 78.04201508   0.1777196076E-05
 78.16880798   0.2242361006E-05
 78.29560089   0.2811389095E-05
 78.42239380   0.3466918542E-05
 78.54918671   0.4190074378E-05
 78.67597961   0.4961126251E-05
 78.80277252   0.5760183740E-05
 78.92956543   0.6567838227E-05
 79.05635834   0.7365865713E-05
 79.18315125   0.8137867553E-05
 79.30994415   0.8869847079E-05
 79.43673706   0.9550751201E-05
 79.56352997   0.1017283012E-04
 79.69032288   0.1073197018E-04
 79.81711578   0.1122788308E-04
 79.94390869   0.1166406764E-04
 80.07070160   0.1204778710E-04
 80.19749451   0.1238978257E-04
 80.32428741   0.1270392386E-04
 80.45108032   0.1300671647E-04
 80.57787323   0.1331669682E-04
 80.70465851   0.1365377375E-04
 80.83145142   0.1403846090E-04
 80.95824432   0.1449112278E-04
 81.08503723   0.1503113799E-04
 81.21183014   0.1567615982E-04
 81.33862305   0.1644138320E-04
 81.46541595   0.1733886165E-04
 81.59220886   0.1837697710E-04
 81.71900177   0.1955997504E-04
 81.84579468   0.2088765905E-04
 81.97258759   0.2235523607E-04
 82.09938049   0.2395329830E-04
 82.22617340   0.2566797775E-04
 82.35296631   0.2748122097E-04
 82.47975922   0.2937124009E-04
 82.60655212   0.3131306221E-04
 82.73334503   0.3327920058E-04
 82.86013794   0.3524038766E-04
 82.98693085   0.3716638093E-04
 83.11372375   0.3902680328E-04
 83.24051666   0.4079196879E-04
 83.36730957   0.4243371222E-04
 83.49410248   0.4392614574E-04
 83.62089539   0.4524635733E-04
 83.74768829   0.4637504389E-04
 83.87448120   0.4729697685E-04
 84.00127411   0.4800140596E-04
 84.12806702   0.4848231401E-04
 84.25485992   0.4873853686E-04
 84.38165283   0.4877373431E-04
 84.50843811   0.4859628461E-04
 84.63523102   0.4821897892E-04
 84.76202393   0.4765868289E-04
 84.88881683   0.4693584197E-04
 85.01560974   0.4607392475E-04
 85.14240265   0.4509879727E-04
 85.26919556   0.4403804996E-04
 85.39598846   0.4292029553E-04
 85.52278137   0.4177444498E-04
 85.64957428   0.4062901644E-04
 85.77636719   0.3951145482E-04
 85.90316010   0.3844752064E-04
 86.02995300   0.3746069706E-04
 86.15674591   0.3657173511E-04
 86.28353882   0.3579823897E-04
 86.41033173   0.3515436765E-04
 86.53712463   0.3465064947E-04
 86.66391754   0.3429387289E-04
 86.79071045   0.3408711200E-04
 86.91750336   0.3402984294E-04
 87.04429626   0.3411814032E-04
 87.17108917   0.3434498285E-04
 87.29788208   0.3470060255E-04
 87.42467499   0.3517292498E-04
 87.55146790   0.3574800212E-04
 87.67826080   0.3641050716E-04
 87.80505371   0.3714420745E-04
 87.93184662   0.3793246287E-04
 88.05863953   0.3875863331E-04
 88.18543243   0.3960650065E-04
 88.31221771   0.4046059985E-04
 88.43901062   0.4130650996E-04
 88.56580353   0.4213101420E-04
 88.69259644   0.4292226367E-04
 88.81938934   0.4366979192E-04
 88.94618225   0.4436450399E-04
 89.07297516   0.4499856368E-04
 89.19976807   0.4556524800E-04
 89.32656097   0.4605874710E-04
 89.45335388   0.4647393871E-04
 89.58014679   0.4680612983E-04
 89.70693970   0.4705084939E-04
 89.83373260   0.4720357902E-04
 89.96052551   0.4725958570E-04
 90.08731842   0.4721376172E-04
 90.21411133   0.4706052641E-04
 90.34090424   0.4679377525E-04
 90.46769714   0.4640690167E-04
 90.59449005   0.4589287346E-04
 90.72128296   0.4524437099E-04
 90.84807587   0.4445397644E-04
 90.97486877   0.4351439929E-04
 91.10166168   0.4241874194E-04
 91.22845459   0.4116077616E-04
 91.35524750   0.3973524508E-04
 91.48204041   0.3813812873E-04
 91.60883331   0.3636690599E-04
 91.73562622   0.3442078014E-04
 91.86241913   0.3230084985E-04
 91.98921204   0.3001024561E-04
 92.11599731   0.2755418791E-04
 92.24279022   0.2493998545E-04
 92.36958313   0.2217695510E-04
 92.49637604   0.1927630728E-04
 92.62316895   0.1625092591E-04
 92.74996185   0.1311513915E-04
 92.87675476   0.9884414794E-05
 93.00354767   0.6575028692E-05
 93.13034058   0.3203767619E-05
 93.25713348   -0.2124480858E-06
 93.38392639   -0.3656846047E-05
 93.51071930   -0.7113089396E-05
 93.63751221   -0.1056551446E-04
 93.76430511   -0.1399930625E-04
 93.89109802   -0.1740058906E-04
 94.01789093   -0.2075645716E-04
 94.14468384   -0.2405494706E-04
 94.27147675   -0.2728488835E-04
 94.39826965   -0.3043577635E-04
 94.52506256   -0.3349750841E-04
 94.65185547   -0.3646013647E-04
 94.77864838   -0.3931357060E-04
 94.90544128   -0.4204732977E-04
 95.03223419   -0.4465025995E-04
 95.15902710   -0.4711034853E-04
 95.28582001   -0.4941454245E-04
 95.41261292   -0.5154871542E-04
 95.53940582   -0.5349764615E-04
 95.66619873   -0.5524514563E-04
 95.79299164   -0.5677428271E-04
 95.91977692   -0.5806770787E-04
 96.04656982   -0.5910806067E-04
 96.17336273   -0.5987846816E-04
 96.30015564   -0.6036309787E-04
 96.42694855   -0.6054780897E-04
 96.55374146   -0.6042074892E-04
 96.68053436   -0.5997300832E-04
 96.80732727   -0.5919920659E-04
 96.93412018   -0.5809805589E-04
 97.06091309   -0.5667277219E-04
 97.18770599   -0.5493147182E-04
 97.31449890   -0.5288736065E-04
 97.44129181   -0.5055883958E-04
 97.56808472   -0.4796939538E-04
 97.69487762   -0.4514742250E-04
 97.82167053   -0.4212580097E-04
 97.94846344   -0.3894141264E-04
 98.07525635   -0.3563444625E-04
 98.20204926   -0.3224765533E-04
 98.32884216   -0.2882547778E-04
 98.45563507   -0.2541310278E-04
 98.58242798   -0.2205551573E-04
 98.70922089   -0.1879650881E-04
 98.83601379   -0.1567769687E-04
 98.96280670   -0.1273761063E-04
 99.08959961   -0.1001084183E-04
 99.21639252   -0.7527281923E-05
 99.34318542   -0.5311487257E-05
 99.46997833   -0.3382172508E-05
 99.59677124   -0.1751868240E-05
 99.72355652   -0.4267228917E-06
 99.85034943   0.5935212357E-06
 99.97714233   0.1315398777E-05
 100.1039352   0.1751419632E-05
 100.2307281   0.1919644092E-05
 100.3575211   0.1843092718E-05
 100.4843140   0.1549086733E-05
 100.6111069   0.1068460847E-05
 100.7378998   0.4347092499E-06
 100.8646927   -0.3168820228E-06
 100.9914856   -0.1150161665E-05
 101.1182785   -0.2029000370E-05
 101.2450714   -0.2918164682E-05
 101.3718643   -0.3784118690E-05
 101.4986572   -0.4595754945E-05
 101.6254501   -0.5325044640E-05
 101.7522430   -0.5947551927E-05
 101.8790359   -0.6442863196E-05
 102.0058289   -0.6794868114E-05
 102.1326218   -0.6991938790E-05
 102.2594147   -0.7026979347E-05
 102.3862076   -0.6897371804E-05
 102.5130005   -0.6604809641E-05
 102.6397934   -0.6155063147E-05
 102.7665863   -0.5557654276E-05
 102.8933792   -0.4825483757E-05
 103.0201721   -0.3974421361E-05
 103.1469650   -0.3022863893E-05
 103.2737579   -0.1991282488E-05
 103.4005508   -0.9017657021E-06
 103.5273361   0.2224344229E-06
 103.6541290   0.1357347287E-05
 103.7809219   0.2478714805E-05
 103.9077148   0.3562406846E-05
 104.0345078   0.4584821454E-05
 104.1613007   0.5523270374E-05
 104.2880936   0.6356339782E-05
 104.4148865   0.7064258170E-05
 104.5416794   0.7629233551E-05
 104.6684723   0.8035770406E-05
 104.7952652   0.8270995750E-05
 104.9220581   0.8324941518E-05
 105.0488510   0.8190816516E-05
 105.1756439   0.7865251064E-05
 105.3024368   0.7348487088E-05
 105.4292297   0.6644531823E-05
 105.5560226   0.5761245575E-05
 105.6828156   0.4710383109E-05
 105.8096085   0.3507534757E-05
 105.9364014   0.2172009772E-05
 106.0631943   0.7266226589E-06
 106.1899872   -0.8026086675E-06
 106.3167801   -0.2386845381E-05
 106.4435730   -0.3994900453E-05
 106.5703659   -0.5593791684E-05
 106.6971588   -0.7149359135E-05
 106.8239517   -0.8626938325E-05
 106.9507446   -0.9992078049E-05
 107.0775375   -0.1121127207E-04
 107.2043304   -0.1225269443E-04
 107.3311157   -0.1308691935E-04
 107.4579086   -0.1368759149E-04
 107.5847015   -0.1403204897E-04
 107.7114944   -0.1410185268E-04
 107.8382874   -0.1388322653E-04
 107.9650803   -0.1336738205E-04
 108.0918732   -0.1255071493E-04
 108.2186661   -0.1143488134E-04
 108.3454590   -0.1002673525E-04
 108.4722519   -0.8338106454E-05
 108.5990448   -0.6385497727E-05
 108.7258377   -0.4189626907E-05
 108.8526306   -0.1774888347E-05
 108.9794235   0.8312632076E-06
 109.1062164   0.3599010370E-05
 109.2330093   0.6496848982E-05
 109.3598022   0.9492332538E-05
 109.4865952   0.1255276038E-04
 109.6133881   0.1564582635E-04
 109.7401810   0.1874018017E-04
 109.8669739   0.2180596493E-04
 109.9937668   0.2481515548E-04
 110.1205597   0.2774186942E-04
 110.2473526   0.3056250353E-04
 110.3741455   0.3325577927E-04
 110.5009384   0.3580266639E-04
 110.6277313   0.3818621553E-04
 110.7545242   0.4039129635E-04
 110.8813171   0.4240428461E-04
 111.0081024   0.4421271660E-04
 111.1348953   0.4580493260E-04
 111.2616882   0.4716976764E-04
 111.3884811   0.4829624595E-04
 111.5152740   0.4917341721E-04
 111.6420670   0.4979022196E-04
 111.7688599   0.5013554255E-04
 111.8956528   0.5019833770E-04
 112.0224457   0.4996794087E-04
 112.1492386   0.4943446038E-04
 112.2760315   0.4858932152E-04
 112.4028244   0.4742587407E-04
 112.5296173   0.4594007260E-04
 112.6564102   0.4413120769E-04
 112.7832031   0.4200260082E-04
 112.9099960   0.3956225555E-04