 -4.500000000   0.1047208588E-16
 -4.373207569   0.1047208009E-16
 -4.246414661   0.1047206850E-16
 -4.119622231   0.1047205527E-16
 -3.992829323   0.1047204534E-16
 -3.866036654   0.1047204038E-16
 -3.739243984   0.1047203873E-16
 -3.612451553   0.1047203955E-16
 -3.485658884   0.1047203873E-16
 -3.358866215   0.1047203459E-16
 -3.232073545   0.1047202549E-16
 -3.105280876   0.1047201308E-16
 -2.978488207   0.1047199985E-16
 -2.851695538   0.1047198992E-16
 -2.724902868   0.1047198413E-16
 -2.598110199   0.1047198496E-16
 -2.471317530   0.1047198827E-16
 -2.344524860   0.1047199158E-16
 -2.217732191   0.1047199240E-16
 -2.090939522   0.1047198827E-16
 -1.964146972   0.1047197834E-16
 -1.837354302   0.1047196428E-16
 -1.710561633   0.1047194277E-16
 -1.583768964   0.1047191713E-16
 -1.456976295   0.1047188901E-16
 -1.330183744   0.1047187329E-16
 -1.203391075   0.1047189480E-16
 -1.076598406   0.1047198579E-16
 -0.9498057365   0.1047215619E-16
 -0.8230130672   0.1047234975E-16
 -0.6962204576   0.1047240517E-16
 -0.5694277883   0.1047205031E-16
 -0.4426351190   0.1047099731E-16
 -0.3158424795   0.1046915848E-16
 -0.1890498251   0.1046696645E-16
 -0.6225717068E-01   0.1046563221E-16
 0.6453548372E-01   0.1046712527E-16
 0.1913281381   0.1047356901E-16
 0.3181207776   0.1048595935E-16
 0.4449134469   0.1050237144E-16
 0.5717061162   0.1051641862E-16
 0.6984987259   0.1051704893E-16
 0.8252913952   0.1049094063E-16
 0.9520840645   0.1042817996E-16
 1.078876734   0.1033058753E-16
 1.205669403   0.1022029375E-16
 1.332461953   0.1014440572E-16
 1.459254622   0.1017092761E-16
 1.586047292   0.1037216494E-16
 1.712839961   0.1079533069E-16
 1.839632630   0.1142530483E-16
 1.966425300   0.1215036668E-16
 2.093217850   0.1274590943E-16
 2.220010519   0.1289152217E-16
 2.346803188   0.1223166613E-16
 2.473595858   0.1047961322E-16
 2.600388527   0.7550283774E-17
 2.727181196   0.3693733253E-17
 2.853973866   -0.4080860397E-18
 2.980766535   -0.3619622006E-17
 3.107559204   -0.4434943330E-17
 3.234351873   -0.1179775241E-17
 3.361144543   0.7672780951E-17
 3.487936974   0.2309516560E-16
 3.614729643   0.4504199937E-16
 3.741522312   0.7197600265E-16
 3.868314981   0.1004434830E-15
 3.995107651   0.1247869981E-15
 4.121900558   0.1371256741E-15
 4.248692989   0.1277837345E-15
 4.375485420   0.8637896412E-16
 4.502278328   0.3756304917E-17
 4.629070759   -0.1251777186E-15
 4.755863667   -0.2979206252E-15
 4.882656097   -0.5007123036E-15
 5.009449005   -0.7057339815E-15
 5.136241436   -0.8704818897E-15
 5.263034344   -0.9407016622E-15
 5.389826775   -0.8579228263E-15
 5.516619682   -0.5717921321E-15
 5.643412113   -0.5610623820E-16
 5.770205021   0.6740741134E-15
 5.896997452   0.1548223020E-14
 6.023790359   0.2433815554E-14
 6.150582790   0.3141946533E-14
 6.277375221   0.3448030571E-14
 6.404168129   0.3127754920E-14
 6.530960560   0.2004903481E-14
 6.657753468   0.4056044565E-17
 6.784545898   -0.2801601919E-14
 6.911338806   -0.6158270457E-14
 7.038131237   -0.9625227556E-14
 7.164924145   -0.1260095679E-13
 7.291716576   -0.1438360031E-13
 7.418509483   -0.1426204430E-13
 7.545301914   -0.1162855619E-13
 7.672094822   -0.6099839583E-14
 7.798887253   0.2369122354E-14
 7.925679684   0.1339463598E-13
 8.052472115   0.2611261630E-13
 8.179265022   0.3917910579E-13
 8.306057930   0.5083377431E-13
 8.432850838   0.5903350725E-13
 8.559642792   0.6165820485E-13
 8.686435699   0.5678357768E-13
 8.813228607   0.4300554325E-13
 8.940021515   0.1978852771E-13
 9.066813469   -0.1220415743E-13
 9.193606377   -0.5085162638E-13
 9.320399284   -0.9245032582E-13
 9.447192192   -0.1317838389E-12
 9.573984146   -0.1624382595E-12
 9.700777054   -0.1773913183E-12
 9.827569962   -0.1698712649E-12
 9.954361916   -0.1344422891E-12
 10.08115482   -0.6823153967E-13
 10.20794773   0.2782473586E-13
 10.33474064   0.1478697264E-12
 10.46153259   0.2803208783E-12
 10.58832550   0.4075479646E-12
 10.71511841   0.5061998997E-12
 10.84191132   0.5483180099E-12
 10.96870327   0.5033273603E-12
 11.09549618   0.3409341223E-12
 11.22228909   0.3487349502E-13
 11.34908199   -0.4326480851E-12
 11.47587395   -0.1066085696E-11
 11.60266685   -0.1851645790E-11
 11.72945976   -0.2752826179E-11
 11.85625172   -0.3706981336E-11
 11.98304462   -0.4623534194E-11
 12.10983753   -0.5384446361E-11
 12.23663044   -0.5847506940E-11
 12.36342239   -0.5852842950E-11
 12.49021530   -0.5232898750E-11
 12.61700821   -0.3825845890E-11
 12.74380112   -0.1492121964E-11
 12.87059307   0.1866562894E-11
 12.99738598   0.6286744562E-11
 13.12417889   0.1172261854E-10
 13.25097084   0.1802703126E-10
 13.37776375   0.2493603414E-10
 13.50455666   0.3205915394E-10
 13.63134956   0.3887759906E-10
 13.75814152   0.4475246215E-10
 13.88493443   0.4894462960E-10
 14.01172733   0.5064751049E-10
 14.13852024   0.4903292009E-10
 14.26531219   0.4330926937E-10
 14.39210510   0.3279022887E-10
 14.51889801   0.1697067487E-10
 14.64569092   -0.4394467429E-11
 14.77248287   -0.3121381625E-10
 14.89927578   -0.6299182009E-10
 15.02606869   -0.9877634127E-10
 15.15286064   -0.1371282393E-09
 15.27965355   -0.1761190915E-09
 15.40644646   -0.2133624388E-09
 15.53323936   -0.2460821547E-09
 15.66003132   -0.2712197134E-09
 15.78682423   -0.2855798376E-09
 15.91361713   -0.2860109094E-09
 16.04040909   -0.2696139700E-09
 16.16720200   -0.2339707872E-09
 16.29399490   -0.1773793473E-09
 16.42078781   -0.9908242282E-10
 16.54758072   0.5264546394E-12
 16.67437363   0.1197357491E-09
 16.80116463   0.2554037259E-09
 16.92795753   0.4029153955E-09
 17.05475044   0.5562208472E-09
 17.18154335   0.7079634101E-09
 17.30833626   0.8497014203E-09
 17.43512917   0.9722228578E-09
 17.56192207   0.1065945443E-08
 17.68871498   0.1121391091E-08
 17.81550598   0.1129714433E-08
 17.94229889   0.1083264367E-08
 18.06909180   0.9761499387E-09
 18.19588470   0.8047791877E-09
 18.32267761   0.5683400972E-09
 18.44947052   0.2691900314E-09
 18.57626343   -0.8687657538E-10
 18.70305443   -0.4905084117E-09
 18.82984734   -0.9288468328E-09
 18.95664024   -0.1385759507E-08
 19.08343315   -0.1842261788E-08
 19.21022606   -0.2277123823E-08
 19.33701897   -0.2667649435E-08
 19.46381187   -0.2990604875E-08
 19.59060478   -0.3223261436E-08
 19.71739578   -0.3344519328E-08
 19.84418869   -0.3336056986E-08
 19.97098160   -0.3183461272E-08
 20.09777451   -0.2877278860E-08
 20.22456741   -0.2413937272E-08
 20.35136032   -0.1796477633E-08
 20.47815323   -0.1035055042E-08
 20.60494423   -0.1471620048E-09
 20.73173714   0.8424561049E-09
 20.85853004   0.1902215940E-08
 20.98532295   0.2994448245E-08
 21.11211586   0.4076480931E-08
 21.23890877   0.5102034351E-08
 21.36570168   0.6022888410E-08
 21.49249458   0.6790779494E-08
 21.61928558   0.7359461929E-08
 21.74607849   0.7686854708E-08
 21.87287140   0.7737200214E-08
 21.99966431   0.7483137665E-08
 22.12645721   0.6907598493E-08
 22.25325012   0.6005435260E-08
 22.38004303   0.4784685093E-08
 22.50683403   0.3267387916E-08
 22.63362694   0.1489893764E-08
 22.76041985   -0.4974096690E-09
 22.88721275   -0.2630976992E-08
 23.01400566   -0.4835614131E-08
 23.14079857   -0.7026607740E-08
 23.26759148   -0.9112443244E-08
 23.39438438   -0.1099804869E-07
 23.52117538   -0.1258848314E-07
 23.64796829   -0.1379294634E-07
 23.77476120   -0.1452898513E-07
 23.90155411   -0.1472672917E-07
 24.02834702   -0.1433297392E-07
 24.15513992   -0.1331494381E-07
 24.28193283   -0.1166353059E-07
 24.40872383   -0.9395817457E-08
 24.53551674   -0.6556721832E-08
 24.66230965   -0.3219599920E-08
 24.78910255   0.5143017123E-09
 24.91589546   0.4517656471E-08
 25.04268837   0.8640144600E-08
 25.16948128   0.1271282901E-07
 25.29627419   0.1655373083E-07
 25.42306519   0.1997449672E-07
 25.54985809   0.2278796885E-07
 25.67665100   0.2481640848E-07
 25.80344391   0.2590007853E-07
 25.93023682   0.2590586412E-07
 26.05702972   0.2473553806E-07
 26.18382263   0.2233327301E-07
 26.31061363   0.1869204347E-07
 26.43740654   0.1385846815E-07
 26.56419945   0.7935824442E-08
 26.69099236   0.1084836887E-08
 26.81778526   -0.6477909764E-08
 26.94457817   -0.1448411968E-07
 27.07137108   -0.2262056320E-07
 27.19816399   -0.3053836295E-07
 27.32495499   -0.3786466962E-07
 27.45174789   -0.4421644917E-07
 27.57854080   -0.4921585983E-07
 27.70533371   -0.5250684154E-07
 27.83212662   -0.5377225776E-07
 27.95891953   -0.5275086679E-07
 28.08571243   -0.4925345465E-07
 28.21250343   -0.4317733016E-07
 28.33929634   -0.3451848585E-07
 28.46608925   -0.2338070182E-07
 28.59288216   -0.9980942295E-08
 28.71967506   0.5349402254E-08
 28.84646797   0.2216787287E-07
 28.97326088   0.3992908404E-07
 29.10005379   0.5799771685E-07
 29.22684479   0.7566615068E-07
 29.35363770   0.9217643537E-07
 29.48043060   0.1067459863E-06
 29.60722351   0.1185963399E-06
 29.73401642   0.1269840055E-06
 29.86080933   0.1312322553E-06
 29.98760223   0.1307628850E-06
 30.11439323   0.1251265758E-06
 30.24118614   0.1140306409E-06
 30.36797905   0.9736281470E-07
 30.49477196   0.7521011725E-07
 30.62156487   0.4787157692E-07
 30.74835777   0.1586409937E-07
 30.87515068   -0.2007931599E-07
 31.00194168   -0.5901927480E-07
 31.12873459   -0.9982776561E-07
 31.25552750   -0.1412139170E-06
 31.38232040   -0.1817570876E-06
 31.50911331   -0.2199468412E-06
 31.63590622   -0.2542283539E-06
 31.76269913   -0.2830522874E-06
 31.88949203   -0.3049276245E-06
 32.01628494   -0.3184756565E-06
 32.14307785   -0.3224832312E-06
 32.26987076   -0.3159540825E-06
 32.39666367   -0.2981554132E-06
 32.52345276   -0.2686590221E-06
 32.65024567   -0.2273747413E-06
 32.77703857   -0.1745749074E-06
 32.90383148   -0.1109088785E-06
 33.03062439   -0.3740663246E-07
 33.15741730   0.4452912350E-07
 33.28421021   0.1331425352E-06
 33.41100311   0.2263556524E-06
 33.53779602   0.3218104894E-06
 33.66458893   0.4169212673E-06
 33.79138184   0.5089357273E-06
 33.91817474   0.5950035984E-06
 34.04496765   0.6722513604E-06
 34.17176056   0.7378600344E-06
 34.29855347   0.7891455311E-06
 34.42534256   0.8236377766E-06
 34.55213547   0.8391575648E-06
 34.67892838   0.8338882367E-06
 34.80572128   0.8064406529E-06
 34.93251419   0.7559090136E-06
 35.05930710   0.6819163900E-06
 35.18610001   0.5846476938E-06
 35.31289291   0.4648700269E-06
 35.43968582   0.3239383943E-06
 35.56647873   0.1637872202E-06
 35.69327164   -0.1309280595E-07
 35.82006454   -0.2036920392E-06
 35.94685745   -0.4045327273E-06
 36.07365036   -0.6117322755E-06
 36.20044327   -0.8210773785E-06
 36.32723236   -0.1028107590E-05
 36.45402527   -0.1228206088E-05
 36.58081818   -0.1416695454E-05
 36.70761108   -0.1588936129E-05
 36.83440399   -0.1740425660E-05
 36.96119690   -0.1866894877E-05
 37.08798981   -0.1964401008E-05
 37.21478271   -0.2029413508E-05
 37.34157562   -0.2058890686E-05
 37.46836853   -0.2050347575E-05
 37.59516144   -0.2001910843E-05
 37.72195435   -0.1912362904E-05
 37.84874725   -0.1781171932E-05
 37.97554016   -0.1608508228E-05
 38.10232925   -0.1395250365E-05
 38.22912216   -0.1142976430E-05
 38.35591507   -0.8539472560E-06
 38.48270798   -0.5310785696E-06
 38.60950089   -0.1779075660E-06
 38.73629379   0.2014475342E-06
 38.86308670   0.6023301466E-06
 38.98987961   0.1019589604E-05
 39.11667252   0.1447624754E-05
 39.24346542   0.1880424406E-05
 39.37025833   0.2311605385E-05
 39.49705124   0.2734443569E-05
 39.62384415   0.3141901288E-05
 39.75063705   0.3526648015E-05
 39.87742996   0.3881076736E-05
 40.00421906   0.4197315775E-05
 40.13101196   0.4467236977E-05
 40.25780487   0.4682467988E-05
 40.38459778   0.4834401352E-05
 40.51139069   0.4914210422E-05
 40.63818359   0.4912872555E-05
 40.76497650   0.4821204584E-05
 40.89176941   0.4629904197E-05
 41.01856232   0.4329613603E-05
 41.14535522   0.3910997748E-05
 41.27214813   0.3364837539E-05
 41.39894104   0.2682147169E-05
 41.52573395   0.1854303036E-05
 41.65252686   0.8731952903E-06
 41.77931976   -0.2686065557E-06
 41.90610886   -0.1577678631E-05
 42.03290176   -0.3059554047E-05
 42.15969467   -0.4718534910E-05
 42.28648758   -0.6557499091E-05
 42.41328049   -0.8577717381E-05
 42.54007339   -0.1077867819E-04
 42.66686630   -0.1315792724E-04
 42.79365921   -0.1571093162E-04
 42.92045212   -0.1843096834E-04
 43.04724503   -0.2130904068E-04
 43.17403793   -0.2433384361E-04
 43.30083084   -0.2749173655E-04
 43.42762375   -0.3076679059E-04
 43.55441666   -0.3414085222E-04
 43.68120956   -0.3759366155E-04
 43.80799866   -0.4110299778E-04
 43.93479156   -0.4464489029E-04
 44.06158447   -0.4819382593E-04
 44.18837738   -0.5172302190E-04
 44.31517029   -0.5520471677E-04
 44.44196320   -0.5861049431E-04
 44.56875610   -0.6191159628E-04
 44.69554901   -0.6507930084E-04
 44.82234192   -0.6808524631E-04
 44.94913483   -0.7090183499E-04
 45.07592773   -0.7350253873E-04
 45.20272064   -0.7586230640E-04
 45.32951355   -0.7795786223E-04
 45.45630646   -0.7976802590E-04
 45.58309937   -0.8127398178E-04
 45.70988846   -0.8245957724E-04
 45.83668137   -0.8331149729E-04
 45.96347427   -0.8381951193E-04
 46.09026718   -0.8397656347E-04
 46.21706009   -0.8377889753E-04
 46.34385300   -0.8322615031E-04
 46.47064590   -0.8232128312E-04
 46.59743881   -0.8107063331E-04
 46.72423172   -0.7948372513E-04
 46.85102463   -0.7757322601E-04
 46.97781754   -0.7535473560E-04
 47.10461044   -0.7284658932E-04
 47.23140335   -0.7006958913E-04
 47.35819626   -0.6704677071E-04
 47.48498917   -0.6380308332E-04
 47.61177826   -0.6036507330E-04
 47.73857117   -0.5676054570E-04
 47.86536407   -0.5301825877E-04
 47.99215698   -0.4916759644E-04
 48.11894989   -0.4523824828E-04
 48.24574280   -0.4125989653E-04
 48.37253571   -0.3726197247E-04
 48.49932861   -0.3327341255E-04
 48.62612152   -0.2932240568E-04
 48.75291443   -0.2543623305E-04
 48.87970734   -0.2164111538E-04
 49.00650024   -0.1796208198E-04
 49.13329315   -0.1442287612E-04
 49.26008606   -0.1104590865E-04
 49.38687897   -0.7852175258E-05
 49.51366806   -0.4861247362E-05
 49.64046097   -0.2091233455E-05
 49.76725388   0.4412410988E-06
 49.89404678   0.2721084229E-05
 50.02083969   0.4734756203E-05
 50.14763260   0.6470352673E-05
 50.27442551   0.7917682524E-05
 50.40121841   0.9068372492E-05
 50.52801132   0.9915994269E-05
 50.65480423   0.1045624413E-04
 50.78159714   0.1068707115E-04
 50.90839005   0.1060888735E-04
 51.03518295   0.1022476681E-04
 51.16197586   0.9540599422E-05
 51.28876877   0.8565269127E-05
 51.41555786   0.7310799447E-05
 51.54235077   0.5792467618E-05
 51.66914368   0.4028848707E-05
 51.79593658   0.2041797416E-05
 51.92272949   -0.1436157788E-06
 52.04952240   -0.2499250968E-05
 52.17631531   -0.4994135452E-05
 52.30310822   -0.7594793260E-05
 52.42990112   -0.1026562313E-04
 52.55669403   -0.1296935807E-04
 52.68348694   -0.1566762330E-04
 52.81027985   -0.1832152520E-04
 52.93707275   -0.2089227564E-04
 53.06386566   -0.2334188866E-04
 53.19065857   -0.2563383714E-04
 53.31744766   -0.2773371125E-04
 53.44424057   -0.2960988968E-04
 53.57103348   -0.3123408169E-04
 53.69782639   -0.3258189827E-04
 53.82461929   -0.3363325231E-04
 53.95141220   -0.3437274427E-04
 54.07820511   -0.3478986764E-04
 54.20499802   -0.3487918002E-04
 54.33179092   -0.3464029214E-04
 54.45858383   -0.3407777695E-04
 54.58537674   -0.3320101678E-04
 54.71216965   -0.3202382868E-04
 54.83896255   -0.3056414062E-04
 54.96575546   -0.2884349124E-04
 55.09254837   -0.2688656241E-04
 55.21933746   -0.2472058077E-04
 55.34613037   -0.2237479021E-04
 55.47292328   -0.1987983342E-04
 55.59971619   -0.1726727351E-04
 55.72650909   -0.1456903010E-04
 55.85330200   -0.1181688185E-04
 55.98009491   -0.9042116289E-05
 56.10688782   -0.6275089618E-05
 56.23368073   -0.3544953415E-05
 56.36047363   -0.8793928714E-06
 56.48726654   0.1695548349E-05
 56.61405945   0.4155634088E-05
 56.74085236   0.6478539945E-05
 56.86764526   0.8643920410E-05
 56.99443817   0.1063347281E-04
 57.12122726   0.1243102088E-04
 57.24802017   0.1402254748E-04
 57.37481308   0.1539628829E-04
 57.50160599   0.1654284097E-04
 57.62839890   0.1745528607E-04
 57.75519180   0.1812933624E-04
 57.88198471   0.1856349809E-04
 58.00877762   0.1875926682E-04
 58.13557053   0.1872128450E-04
 58.26236343   0.1845753832E-04
 58.38915634   0.1797947334E-04
 58.51594925   0.1730211261E-04
 58.64274216   0.1644411532E-04
 58.76953506   0.1542770224E-04
 58.89632797   0.1427859115E-04
 59.02311707   0.1302575401E-04
 59.14990997   0.1170110045E-04
 59.27670288   0.1033903209E-04
 59.40349579   0.8975895980E-05
 59.53028870   0.7649347936E-05
 59.65708160   0.6397565812E-05
 59.78387451   0.5258440069E-05
 59.91066742   0.4268687917E-05
 60.03746033   0.3462937002E-05
 60.16425323   0.2872793857E-05
 60.29104614   0.2525923946E-05
 60.41783905   0.2445229711E-05
 60.54463196   0.2648073178E-05
 60.67142487   0.3145653181E-05
 60.79821777   0.3942465355E-05
 60.92500687   0.5035990853E-05
 61.05179977   0.6416514225E-05
 61.17859268   0.8067178896E-05
 61.30538559   0.9964238416E-05
 61.43217850   0.1207751029E-04
 61.55897141   0.1437100491E-04
 61.68576431   0.1680377136E-04
 61.81255722   0.1933089334E-04
 61.93935013   0.2190463056E-04
 62.06614304   0.2447564657E-04
 62.19293594   0.2699431570E-04
 62.31972885   0.2941207458E-04
 62.44652176   0.3168271724E-04
 62.57331467   0.3376371751E-04
 62.70010757   0.3561738049E-04
 62.82689667   0.3721192115E-04
 62.95368958   0.3852235386E-04
 63.08048248   0.3953121632E-04
 63.20727539   0.4022906069E-04
 63.33406830   0.4061469372E-04
 63.46086121   0.4069517672E-04
 63.58765411   0.4048561095E-04
 63.71444702   0.4000862100E-04
 63.84123993   0.3929367449E-04
 63.96803284   0.3837613622E-04
 64.09482574   0.3729617310E-04
 64.22161865   0.3609749547E-04
 64.34841156   0.3482595275E-04
 64.47520447   0.3352810745E-04
 64.60199738   0.3224972170E-04
 64.72879028   0.3103433482E-04
 64.85558319   0.2992179179E-04
 64.98237610   0.2894696809E-04
 65.10916901   0.2813859464E-04
 65.23596191   0.2751832290E-04
 65.36275482   0.2709992987E-04
 65.48954773   0.2688883069E-04
 65.61633301   0.2688180575E-04
 65.74312592   0.2706703526E-04
 65.86991882   0.2742437391E-04
 65.99671173   0.2792594023E-04
 66.12350464   0.2853692604E-04
 66.25029755   0.2921665873E-04
 66.37709045   0.2991986548E-04
 66.50388336   0.3059810842E-04
 66.63067627   0.3120133260E-04
 66.75746918   0.3167952309E-04
 66.88426208   0.3198433114E-04
 67.01105499   0.3207074042E-04
 67.13784790   0.3189862764E-04
 67.26464081   0.3143422873E-04
 67.39143372   0.3065136843E-04
 67.51822662   0.2953256080E-04
 67.64501953   0.2806982047E-04
 67.77181244   0.2626521382E-04
 67.89860535   0.2413112998E-04
 68.02539825   0.2169023901E-04
 68.15219116   0.1897514085E-04
 68.27898407   0.1602773591E-04
 68.40577698   0.1289829288E-04
 68.53256989   0.9644347301E-05
 68.65936279   0.6329276857E-05
 68.78615570   0.3020806844E-05
 68.91294861   -0.2107027370E-06
 69.03974152   -0.3293987220E-05
 69.16653442   -0.6158645192E-05
 69.29332733   -0.8736928066E-05
 69.42011261   -0.1096539381E-04
 69.54690552   -0.1278653326E-04
 69.67369843   -0.1415008046E-04
 69.80049133   -0.1501431780E-04
 69.92728424   -0.1534697185E-04
 70.05407715   -0.1512597919E-04
 70.18087006   -0.1433990565E-04
 70.30766296   -0.1298813095E-04
 70.43445587   -0.1108074594E-04
 70.56124878   -0.8638131476E-05
 70.68804169   -0.5690351372E-05
 70.81483459   -0.2276250370E-05
 70.94162750   0.1557626661E-05
 71.06842041   0.5758269708E-05
 71.19521332   0.1026761765E-04
 71.32200623   0.1502396572E-04
 71.44879913   0.1996355968E-04
 71.57559204   0.2502210009E-04
 71.70238495   0.3013621244E-04
 71.82917786   0.3524492058E-04
 71.95597076   0.4029088450E-04
 72.08276367   0.4522163363E-04
 72.20955658   0.4999051453E-04
 72.33634949   0.5455749488E-04
 72.46314240   0.5888976011E-04
 72.58993530   0.6296208448E-04
 72.71672821   0.6675694021E-04
 72.84352112   0.7026451931E-04
 72.97031403   0.7348241343E-04
 73.09710693   0.7641523553E-04
 73.22389221   0.7907396503E-04
 73.35068512   0.8147523477E-04
 73.47747803   0.8364053065E-04
 73.60427094   0.8559522394E-04
 73.73106384   0.8736764721E-04
 73.85785675   0.8898808301E-04
 73.98464966   0.9048784705E-04
 74.11144257   0.9189837147E-04
 74.23823547   0.9325034625E-04
 74.36502838   0.9457306442E-04
 74.49182129   0.9589374531E-04
 74.61861420   0.9723703261E-04
 74.74540710   0.9862466686E-04
 74.87220001   0.1000751581E-03
 74.99899292   0.1016036840E-03
 75.12578583   0.1032220753E-03
 75.25257874   0.1049389248E-03
 75.37937164   0.1067597914E-03
 75.50616455   0.1086875563E-03
 75.63295746   0.1107226053E-03
 75.75975037   0.1128633448E-03
 75.88654327   0.1151064935E-03
 76.01333618   0.1174474892E-03
 76.14012909   0.1198807950E-03
 76.26692200   0.1224001899E-03
 76.39371490   0.1249991037E-03
 76.52050781   0.1276706171E-03
 76.64730072   0.1304077450E-03
 76.77409363   0.1332033426E-03
 76.90088654   0.1360501046E-03
 77.02767181   0.1389403915E-03
 77.15446472   0.1418659231E-03
 77.28125763   0.1448175899E-03
 77.40805054   0.1477849873E-03
 77.53484344   0.1507560664E-03
 77.66163635   0.1537168282E-03
 77.78842926   0.1566507999E-03
 77.91522217   0.1595387730E-03
 78.04201508   0.1623584685E-03
 78.16880798   0.1650843042E-03
 78.29560089   0.1676872344E-03
 78.42239380   0.1701346046E-03
 78.54918671   0.1723902969E-03
 78.67597961   0.1744148467E-03
 78.80277252   0.1761658059E-03
 78.92956543   0.1775981946E-03
 79.05635834   0.1786650682E-03
 79.18315125   0.1793183183E-03
 79.30994415   0.1795093413E-03
 79.43673706   0.1791900140E-03
 79.56352997   0.1783136686E-03
 79.69032288   0.1768359652E-03
 79.81711578   0.1747159986E-03
 79.94390869   0.1719172724E-03
 80.07070160   0.1684086019E-03
 80.19749451   0.1641650451E-03
 80.32428741   0.1591686450E-03
 80.45108032   0.1534090843E-03
 80.57787323   0.1468841510E-03
 80.70465851   0.1395999861E-03
 80.83145142   0.1315714035E-03
 80.95824432   0.1228216861E-03
 81.08503723   0.1133825135E-03
 81.21183014   0.1032935834E-03
 81.33862305   0.9260205115E-04
 81.46541595   0.8136190445E-04
 81.59220886   0.6963312626E-04
 81.71900177   0.5748083277E-04
 81.84579468   0.4497428017E-04
 81.97258759   0.3218582424E-04
 82.09938049   0.1918986709E-04
 82.22617340   0.6061813110E-05
 82.35296631   -0.7122981970E-05
 82.47975922   -0.2029018651E-04
 82.60655212   -0.3336743248E-04
 82.73334503   -0.4628515671E-04
 82.86013794   -0.5897737356E-04
 82.98693085   -0.7138237561E-04
 83.11372375   -0.8344327216E-04
 83.24051666   -0.9510847303E-04
 83.36730957   -0.1063320160E-03
 83.49410248   -0.1170738033E-03
 83.62089539   -0.1272997906E-03
 83.74768829   -0.1369819074E-03
 83.87448120   -0.1460981584E-03
 84.00127411   -0.1546323765E-03
 84.12806702   -0.1625740988E-03
 84.25485992   -0.1699183194E-03
 84.38165283   -0.1766651258E-03
 84.50843811   -0.1828193926E-03
 84.63523102   -0.1883903315E-03
 84.76202393   -0.1933910680E-03
 84.88881683   -0.1978381915E-03
 85.01560974   -0.2017512743E-03
 85.14240265   -0.2051524352E-03
 85.26919556   -0.2080659178E-03
 85.39598846   -0.2105175226E-03
 85.52278137   -0.2125343744E-03
 85.64957428   -0.2141443401E-03
 85.77636719   -0.2153757378E-03
 85.90316010   -0.2162570017E-03
 86.02995300   -0.2168163483E-03
 86.15674591   -0.2170815569E-03
 86.28353882   -0.2170797961E-03
 86.41033173   -0.2168374340E-03
 86.53712463   -0.2163799800E-03
 86.66391754   -0.2157319832E-03
 86.79071045   -0.2149171050E-03
 86.91750336   -0.2139580902E-03
 87.04429626   -0.2128768247E-03
 87.17108917   -0.2116945107E-03
 87.29788208   -0.2104316955E-03
 87.42467499   -0.2091084898E-03
 87.55146790   -0.2077446261E-03
 87.67826080   -0.2063597058E-03
 87.80505371   -0.2049731993E-03
 87.93184662   -0.2036045771E-03
 88.05863953   -0.2022733388E-03
 88.18543243   -0.2009990276E-03
 88.31221771   -0.1998011576E-03
 88.43901062   -0.1986990683E-03
 88.56580353   -0.1977117354E-03
 88.69259644   -0.1968575380E-03
 88.81938934   -0.1961537928E-03
 88.94618225   -0.1956164924E-03
 89.07297516   -0.1952597086E-03
 89.19976807   -0.1950951118E-03
 89.32656097   -0.1951313898E-03
 89.45335388   -0.1953736501E-03
 89.58014679   -0.1958229404E-03
 89.70693970   -0.1964756957E-03
 89.83373260   -0.1973232575E-03
 89.96052551   -0.1983515249E-03
 90.08731842   -0.1995406783E-03
 90.21411133   -0.2008651209E-03
 90.34090424   -0.2022934932E-03
 90.46769714   -0.2037889208E-03
 90.59449005   -0.2053094940E-03
 90.72128296   -0.2068088943E-03
 90.84807587   -0.2082373103E-03
 90.97486877   -0.2095422969E-03
 91.10166168   -0.2106701431E-03
 91.22845459   -0.2115671377E-03
 91.35524750   -0.2121808793E-03
 91.48204041   -0.2124619350E-03
 91.60883331   -0.2123651502E-03
 91.73562622   -0.2118511620E-03
 91.86241913   -0.2108876943E-03
 91.98921204   -0.2094507363E-03
 92.11599731   -0.2075255616E-03
 92.24279022   -0.2051073097E-03
 92.36958313   -0.2022016124E-03
 92.49637604   -0.1988244912E-03
 92.62316895   -0.1950022561E-03
 92.74996185   -0.1907709520E-03
 92.87675476   -0.1861754281E-03
 93.00354767   -0.1812682458E-03
 93.13034058   -0.1761082385E-03
 93.25713348   -0.1707588526E-03
 93.38392639   -0.1652863284E-03
 93.51071930   -0.1597578375E-03
 93.63751221   -0.1542394311E-03
 93.76430511   -0.1487940608E-03
 93.89109802   -0.1434798178E-03
 94.01789093   -0.1383482158E-03
 94.14468384   -0.1334427361E-03
 94.27147675   -0.1287976629E-03
 94.39826965   -0.1244372106E-03
 94.52506256   -0.1203749853E-03
 94.65185547   -0.1166138391E-03
 94.77864838   -0.1131460303E-03
 94.90544128   -0.1099537767E-03
 95.03223419   -0.1070101280E-03
 95.15902710   -0.1042801887E-03
 95.28582001   -0.1017225513E-03
 95.41261292   -0.9929098451E-04
 95.53940582   -0.9693623724E-04
 95.66619873   -0.9460792353E-04
 95.79299164   -0.9225637041E-04
 95.91977692   -0.8983453154E-04
 96.04656982   -0.8729958790E-04
 96.17336273   -0.8461457764E-04
 96.30015564   -0.8174963295E-04
 96.42694855   -0.7868306420E-04
 96.55374146   -0.7540209481E-04
 96.68053436   -0.7190322503E-04
 96.80732727   -0.6819234841E-04
 96.93412018   -0.6428438792E-04
 97.06091309   -0.6020277579E-04
 97.18770599   -0.5597846030E-04
 97.31449890   -0.5164880349E-04
 97.44129181   -0.4725620238E-04
 97.56808472   -0.4284655370E-04
 97.69487762   -0.3846767504E-04
 97.82167053   -0.3416766049E-04
 97.94846344   -0.2999325807E-04
 98.07525635   -0.2598831452E-04
 98.20204926   -0.2219239650E-04
 98.32884216   -0.1863956641E-04
 98.45563507   -0.1535740012E-04
 98.58242798   -0.1236626122E-04
 98.70922089   -0.9678884453E-05
 98.83601379   -0.7300210655E-05
 98.96280670   -0.5227508154E-05
 99.08959961   -0.3450764552E-05
 99.21639252   -0.1953298806E-05
 99.34318542   -0.7125380534E-06
 99.46997833   0.2990034886E-06
 99.59677124   0.1112710947E-05
 99.72355652   0.1762712145E-05
 99.85034943   0.2284767106E-05
 99.97714233   0.2715170240E-05
 100.1039352   0.3089712891E-05
 100.2307281   0.3442789875E-05
 100.3575211   0.3806664608E-05
 100.4843140   0.4210884526E-05
 100.6111069   0.4681875453E-05
 100.7378998   0.5242713996E-05
 100.8646927   0.5913013410E-05
 100.9914856   0.6708983619E-05
 101.1182785   0.7643595382E-05
 101.2450714   0.8726804481E-05
 101.3718643   0.9965860045E-05
 101.4986572   0.1136561150E-04
 101.6254501   0.1292883371E-04
 101.7522430   0.1465649530E-04
 101.8790359   0.1654795597E-04
 102.0058289   0.1860109478E-04
 102.1326218   0.2081232924E-04
 102.2594147   0.2317654071E-04
 102.3862076   0.2568690252E-04
 102.5130005   0.2833465260E-04
 102.6397934   0.3110883699E-04
 102.7665863   0.3399599882E-04
 102.8933792   0.3697990905E-04
 103.0201721   0.4004132643E-04
 103.1469650   0.4315780461E-04
 103.2737579   0.4630360854E-04
 103.4005508   0.4944975444E-04
 103.5273361   0.5256418444E-04
 103.6541290   0.5561213766E-04
 103.7809219   0.5855663403E-04
 103.9077148   0.6135919830E-04
 104.0345078   0.6398064579E-04
 104.1613007   0.6638214109E-04
 104.2880936   0.6852621300E-04
 104.4148865   0.7037795876E-04
 104.5416794   0.7190618635E-04
 104.6684723   0.7308460772E-04
 104.7952652   0.7389293751E-04
 104.9220581   0.7431787526E-04
 105.0488510   0.7435397856E-04
 105.1756439   0.7400431059E-04
 105.3024368   0.7328089850E-04
 105.4292297   0.7220487169E-04
 105.5560226   0.7080638170E-04
 105.6828156   0.6912414392E-04
 105.8096085   0.6720473903E-04
 105.9364014   0.6510161620E-04
 106.0631943   0.6287378346E-04
 106.1899872   0.6058433064E-04
 106.3167801   0.5829874135E-04
 106.4435730   0.5608300853E-04
 106.5703659   0.5400173177E-04
 106.6971588   0.5211614189E-04
 106.8239517   0.5048217281E-04
 106.9507446   0.4914863530E-04
 107.0775375   0.4815554712E-04
 107.2043304   0.4753269604E-04
 107.3311157   0.4729849388E-04
 107.4579086   0.4745917249E-04
 107.5847015   0.4800835450E-04
 107.7114944   0.4892700599E-04
 107.8382874   0.5018378943E-04
 107.9650803   0.5173584213E-04
 108.0918732   0.5352990411E-04
 108.2186661   0.5550382775E-04
 108.3454590   0.5758836778E-04
 108.4722519   0.5970922575E-04
 108.5990448   0.6178930198E-04
 108.7258377   0.6375103840E-04
 108.8526306   0.6551881233E-04
 108.9794235   0.6702130486E-04
 109.1062164   0.6819367991E-04
 109.2330093   0.6897966523E-04
 109.3598022   0.6933329860E-04
 109.4865952   0.6922034663E-04
 109.6133881   0.6861935981E-04
 109.7401810   0.6752234185E-04
 109.8669739   0.6593496801E-04
 109.9937668   0.6387643225E-04
 110.1205597   0.6137880700E-04
 110.2473526   0.5848607179E-04
 110.3741455   0.5525274537E-04
 110.5009384   0.5174225225E-04
 110.6277313   0.4802498370E-04
 110.7545242   0.4417622768E-04
 110.8813171   0.4027391697E-04
 111.0081024   0.3639639908E-04
 111.1348953   0.3262017344E-04
 111.2616882   0.2901779590E-04
 111.3884811   0.2565587056E-04
 111.5152740   0.2259331632E-04
 111.6420670   0.1987988435E-04
 111.7688599   0.1755492849E-04
 111.8956528   0.1564656668E-04
 112.0224457   0.1417112890E-04
 112.1492386   0.1313298617E-04
 112.2760315   0.1252472339E-04
 112.4028244   0.1232766317E-04