 -4.500000000   0.5009545170E-17
 -4.373207569   0.5009311905E-17
 -4.246414661   0.5008952495E-17
 -4.119622231   0.5008542627E-17
 -3.992829323   0.5008131518E-17
 -3.866036654   0.5007745638E-17
 -3.739243984   0.5007401531E-17
 -3.612451553   0.5007104987E-17
 -3.485658884   0.5006856833E-17
 -3.358866215   0.5006657896E-17
 -3.232073545   0.5006505281E-17
 -3.105280876   0.5006395679E-17
 -2.978488207   0.5006324542E-17
 -2.851695538   0.5006282356E-17
 -2.724902868   0.5006259195E-17
 -2.598110199   0.5006244719E-17
 -2.471317530   0.5006228589E-17
 -2.344524860   0.5006203360E-17
 -2.217732191   0.5006164482E-17
 -2.090939522   0.5006109475E-17
 -1.964146972   0.5006036683E-17
 -1.837354302   0.5005946107E-17
 -1.710561633   0.5005839400E-17
 -1.583768964   0.5005714910E-17
 -1.456976295   0.5005574289E-17
 -1.330183744   0.5005417952E-17
 -1.203391075   0.5005247553E-17
 -1.076598406   0.5005065159E-17
 -0.9498057365   0.5004872426E-17
 -0.8230130672   0.5004672249E-17
 -0.6962204576   0.5004467108E-17
 -0.5694277883   0.5004257417E-17
 -0.4426351190   0.5004044418E-17
 -0.3158424795   0.5003827697E-17
 -0.1890498251   0.5003607254E-17
 -0.6225717068E-01   0.5003383915E-17
 0.6453548372E-01   0.5003158508E-17
 0.1913281381   0.5002932274E-17
 0.3181207776   0.5002707695E-17
 0.4449134469   0.5002488078E-17
 0.5717061162   0.5002275906E-17
 0.6984987259   0.5002072006E-17
 0.8252913952   0.5001877619E-17
 0.9520840645   0.5001691090E-17
 1.078876734   0.5001512832E-17
 1.205669403   0.5001341192E-17
 1.332461953   0.5001176170E-17
 1.459254622   0.5001016524E-17
 1.586047292   0.5000862668E-17
 1.712839961   0.5000714189E-17
 1.839632630   0.5000570673E-17
 1.966425300   0.5000428812E-17
 2.093217850   0.5000287778E-17
 2.220010519   0.5000145916E-17
 2.346803188   0.5000001160E-17
 2.473595858   0.4999854749E-17
 2.600388527   0.4999705443E-17
 2.727181196   0.4999554896E-17
 2.853973866   0.4999405176E-17
 2.980766535   0.4999256284E-17
 3.107559204   0.4999109873E-17
 3.234351873   0.4998964702E-17
 3.361144543   0.4998819946E-17
 3.487936974   0.4998675189E-17
 3.614729643   0.4998531260E-17
 3.741522312   0.4998387330E-17
 3.868314981   0.4998245469E-17
 3.995107651   0.4998105262E-17
 4.121900558   0.4997967536E-17
 4.248692989   0.4997831465E-17
 4.375485420   0.4997696634E-17
 4.502278328   0.4997560977E-17
 4.629070759   0.4997424492E-17
 4.755863667   0.4997285526E-17
 4.882656097   0.4997143664E-17
 5.009449005   0.4996998908E-17
 5.136241436   0.4996851256E-17
 5.263034344   0.4996701123E-17
 5.389826775   0.4996547681E-17
 5.516619682   0.4996392171E-17
 5.643412113   0.4996231284E-17
 5.770205021   0.4996067089E-17
 5.896997452   0.4995897930E-17
 6.023790359   0.4995724222E-17
 6.150582790   0.4995546378E-17
 6.277375221   0.4995366467E-17
 6.404168129   0.4995184901E-17
 6.530960560   0.4995002507E-17
 6.657753468   0.4994820527E-17
 6.784545898   0.4994638548E-17
 6.911338806   0.4994455327E-17
 7.038131237   0.4994272107E-17
 7.164924145   0.4994088886E-17
 7.291716576   0.4993905666E-17
 7.418509483   0.4993725754E-17
 7.545301914   0.4993549564E-17
 7.672094822   0.4993377924E-17
 7.798887253   0.4993210834E-17
 7.925679684   0.4993048707E-17
 8.052472115   0.4992890302E-17
 8.179265022   0.4992733964E-17
 8.306057930   0.4992579282E-17
 8.432850838   0.4992424599E-17
 8.559642792   0.4992270330E-17
 8.686435699   0.4992115647E-17
 8.813228607   0.4991959310E-17
 8.940021515   0.4991800077E-17
 9.066813469   0.4991637950E-17
 9.193606377   0.4991470860E-17
 9.320399284   0.4991298806E-17
 9.447192192   0.4991120962E-17
 9.573984146   0.4990938569E-17
 9.700777054   0.4990753280E-17
 9.827569962   0.4990568819E-17
 9.954361916   0.4990385599E-17
 10.08115482   0.4990206100E-17
 10.20794773   0.4990032806E-17
 10.33474064   0.4989864475E-17
 10.46153259   0.4989702347E-17
 10.58832550   0.4989544356E-17
 10.71511841   0.4989391741E-17
 10.84191132   0.4989241608E-17
 10.96870327   0.4989093129E-17
 11.09549618   0.4988944236E-17
 11.22228909   0.4988794103E-17
 11.34908199   0.4988639420E-17
 11.47587395   0.4988478534E-17
 11.60266685   0.4988308962E-17
 11.72945976   0.4988128636E-17
 11.85625172   0.4987936317E-17
 11.98304462   0.4987734071E-17
 12.10983753   0.4987522727E-17
 12.23663044   0.4987303110E-17
 12.36342239   0.4987075222E-17
 12.49021530   0.4986839475E-17
 12.61700821   0.4986597525E-17
 12.74380112   0.4986346889E-17
 12.87059307   0.4986084259E-17
 12.99738598   0.4985809635E-17
 13.12417889   0.4985519709E-17
 13.25097084   0.4985214065E-17
 13.37776375   0.4984891465E-17
 13.50455666   0.4984551494E-17
 13.63134956   0.4984194152E-17
 13.75814152   0.4983821093E-17
 13.88493443   0.4983432318E-17
 14.01172733   0.4983029481E-17
 14.13852024   0.4982614650E-17
 14.26531219   0.4982189066E-17
 14.39210510   0.4981756450E-17
 14.51889801   0.4981319699E-17
 14.64569092   0.4980878812E-17
 14.77248287   0.4980436684E-17
 14.89927578   0.4979992074E-17
 15.02606869   0.4979545397E-17
 15.15286064   0.4979094170E-17
 15.27965355   0.4978636739E-17
 15.40644646   0.4978172690E-17
 15.53323936   0.4977700370E-17
 15.66003132   0.4977220606E-17
 15.78682423   0.4976733810E-17
 15.91361713   0.4976242051E-17
 16.04040909   0.4975746983E-17
 16.16720200   0.4975249434E-17
 16.29399490   0.4974750644E-17
 16.42078781   0.4974251854E-17
 16.54758072   0.4973753892E-17
 16.67437363   0.4973256342E-17
 16.80116463   0.4972760861E-17
 16.92795753   0.4972266621E-17
 17.05475044   0.4971774862E-17
 17.18154335   0.4971285585E-17
 17.30833626   0.4970799616E-17
 17.43512917   0.4970316956E-17
 17.56192207   0.4969837191E-17
 17.68871498   0.4969361976E-17
 17.81550598   0.4968893378E-17
 17.94229889   0.4968429744E-17
 18.06909180   0.4967973140E-17
 18.19588470   0.4967523981E-17
 18.32267761   0.4967083921E-17
 18.44947052   0.4966652546E-17
 18.57626343   0.4966229443E-17
 18.70305443   0.4965813785E-17
 18.82984734   0.4965404331E-17
 18.95664024   0.4965000253E-17
 19.08343315   0.4964598657E-17
 19.21022606   0.4964200783E-17
 19.33701897   0.4963802495E-17
 19.46381187   0.4963404208E-17
 19.59060478   0.4963002198E-17
 19.71739578   0.4962596052E-17
 19.84418869   0.4962182876E-17
 19.97098160   0.4961762668E-17
 20.09777451   0.4961335843E-17
 20.22456741   0.4960903227E-17
 20.35136032   0.4960467303E-17
 20.47815323   0.4960032206E-17
 20.60494423   0.4959600831E-17
 20.73173714   0.4959175247E-17
 20.85853004   0.4958758348E-17
 20.98532295   0.4958351375E-17
 21.11211586   0.4957952260E-17
 21.23890877   0.4957563072E-17
 21.36570168   0.4957180914E-17
 21.49249458   0.4956804961E-17
 21.61928558   0.4956433970E-17
 21.74607849   0.4956068357E-17
 21.87287140   0.4955708947E-17
 21.99966431   0.4955354913E-17
 22.12645721   0.4955007911E-17
 22.25325012   0.4954668353E-17
 22.38004303   0.4954338308E-17
 22.50683403   0.4954017776E-17
 22.63362694   0.4953709237E-17
 22.76041985   0.4953413107E-17
 22.88721275   0.4953128970E-17
 23.01400566   0.4952855587E-17
 23.14079857   0.4952591716E-17
 23.26759148   0.4952334463E-17
 23.39438438   0.4952080932E-17
 23.52117538   0.4951827815E-17
 23.64796829   0.4951573871E-17
 23.77476120   0.4951316618E-17
 23.90155411   0.4951056883E-17
 24.02834702   0.4950795080E-17
 24.15513992   0.4950530796E-17
 24.28193283   0.4950266098E-17
 24.40872383   0.4950001814E-17
 24.53551674   0.4949737530E-17
 24.66230965   0.4949473246E-17
 24.78910255   0.4949208134E-17
 24.91589546   0.4948942609E-17
 25.04268837   0.4948676257E-17
 25.16948128   0.4948407837E-17
 25.29627419   0.4948139417E-17
 25.42306519   0.4947870583E-17
 25.54985809   0.4947602990E-17
 25.67665100   0.4947335811E-17
 25.80344391   0.4947069045E-17
 25.93023682   0.4946804761E-17
 26.05702972   0.4946543785E-17
 26.18382263   0.4946285705E-17
 26.31061363   0.4946031761E-17
 26.43740654   0.4945782366E-17
 26.56419945   0.4945537934E-17
 26.69099236   0.4945296397E-17
 26.81778526   0.4945058169E-17
 26.94457817   0.4944822009E-17
 27.07137108   0.4944585849E-17
 27.19816399   0.4944348448E-17
 27.32495499   0.4944108979E-17
 27.45174789   0.4943867856E-17
 27.57854080   0.4943624665E-17
 27.70533371   0.4943379820E-17
 27.83212662   0.4943133320E-17
 27.95891953   0.4942884338E-17
 28.08571243   0.4942632875E-17
 28.21250343   0.4942377690E-17
 28.33929634   0.4942120023E-17
 28.46608925   0.4941860289E-17
 28.59288216   0.4941599313E-17
 28.71967506   0.4941338751E-17
 28.84646797   0.4941081085E-17
 28.97326088   0.4940825486E-17
 29.10005379   0.4940575264E-17
 29.22684479   0.4940328764E-17
 29.35363770   0.4940083505E-17
 29.48043060   0.4939839900E-17
 29.60722351   0.4939593814E-17
 29.73401642   0.4939344419E-17
 29.86080933   0.4939090061E-17
 29.98760223   0.4938829085E-17
 30.11439323   0.4938561492E-17
 30.24118614   0.4938285628E-17
 30.36797905   0.4938000664E-17
 30.49477196   0.4937708256E-17
 30.62156487   0.4937407162E-17
 30.74835777   0.4937098210E-17
 30.87515068   0.4936779745E-17
 31.00194168   0.4936453423E-17
 31.12873459   0.4936118828E-17
 31.25552750   0.4935775135E-17
 31.38232040   0.4935422756E-17
 31.50911331   0.4935062518E-17
 31.63590622   0.4934693596E-17
 31.76269913   0.4934316815E-17
 31.88949203   0.4933933417E-17
 32.01628494   0.4933543815E-17
 32.14307785   0.4933151318E-17
 32.26987076   0.4932756339E-17
 32.39666367   0.4932361360E-17
 32.52345276   0.4931965968E-17
 32.65024567   0.4931570576E-17
 32.77703857   0.4931173942E-17
 32.90383148   0.4930776896E-17
 33.03062439   0.4930376127E-17
 33.15741730   0.4929972876E-17
 33.28421021   0.4929565490E-17
 33.41100311   0.4929155622E-17
 33.53779602   0.4928743686E-17
 33.66458893   0.4928330509E-17
 33.79138184   0.4927917332E-17
 33.91817474   0.4927504156E-17
 34.04496765   0.4927091393E-17
 34.17176056   0.4926677802E-17
 34.29855347   0.4926263385E-17
 34.42534256   0.4925848967E-17
 34.55213547   0.4925432895E-17
 34.67892838   0.4925015996E-17
 34.80572128   0.4924597857E-17
 34.93251419   0.4924178890E-17
 35.05930710   0.4923759509E-17
 35.18610001   0.4923340128E-17
 35.31289291   0.4922920334E-17
 35.43968582   0.4922500954E-17
 35.56647873   0.4922081573E-17
 35.69327164   0.4921665088E-17
 35.82006454   0.4921249016E-17
 35.94685745   0.4920835839E-17
 36.07365036   0.4920423490E-17
 36.20044327   0.4920013208E-17
 36.32723236   0.4919603754E-17
 36.45402527   0.4919194299E-17
 36.58081818   0.4918785672E-17
 36.70761108   0.4918377872E-17
 36.83440399   0.4917972967E-17
 36.96119690   0.4917570957E-17
 37.08798981   0.4917173911E-17
 37.21478271   0.4916781000E-17
 37.34157562   0.4916391811E-17
 37.46836853   0.4916004277E-17
 37.59516144   0.4915615089E-17
 37.72195435   0.4915220937E-17
 37.84874725   0.4914819755E-17
 37.97554016   0.4914407819E-17
 38.10232925   0.4913984302E-17
 38.22912216   0.4913549205E-17
 38.35591507   0.4913105836E-17
 38.48270798   0.4912655023E-17
 38.60950089   0.4912200487E-17
 38.73629379   0.4911746779E-17
 38.86308670   0.4911296792E-17
 38.98987961   0.4910855491E-17
 39.11667252   0.4910424530E-17
 39.24346542   0.4910003495E-17
 39.37025833   0.4909593214E-17
 39.49705124   0.4909192445E-17
 39.62384415   0.4908798293E-17
 39.75063705   0.4908408278E-17
 39.87742996   0.4908019089E-17
 40.00421906   0.4907630314E-17
 40.13101196   0.4907239058E-17
 40.25780487   0.4906846974E-17
 40.38459778   0.4906454891E-17
 40.51139069   0.4906064875E-17
 40.63818359   0.4905678168E-17
 40.76497650   0.4905296424E-17
 40.89176941   0.4904920057E-17
 41.01856232   0.4904548653E-17
 41.14535522   0.4904180144E-17
 41.27214813   0.4903811221E-17
 41.39894104   0.4903440644E-17
 41.52573395   0.4903065104E-17
 41.65252686   0.4902682120E-17
 41.77931976   0.4902290036E-17
 41.90610886   0.4901888854E-17
 42.03290176   0.4901478572E-17
 42.15969467   0.4901061259E-17
 42.28648758   0.4900637329E-17
 42.41328049   0.4900208023E-17
 42.54007339   0.4899774994E-17
 42.66686630   0.4899340310E-17
 42.79365921   0.4898905213E-17
 42.92045212   0.4898470530E-17
 43.04724503   0.4898037501E-17
 43.17403793   0.4897605712E-17
 43.30083084   0.4897175165E-17
 43.42762375   0.4896746272E-17
 43.55441666   0.4896319447E-17
 43.68120956   0.4895894276E-17
 43.80799866   0.4895470346E-17
 43.93479156   0.4895048484E-17
 44.06158447   0.4894629517E-17
 44.18837738   0.4894213858E-17
 44.31517029   0.4893800682E-17
 44.44196320   0.4893389159E-17
 44.56875610   0.4892979705E-17
 44.69554901   0.4892569010E-17
 44.82234192   0.4892155006E-17
 44.94913483   0.4891737280E-17
 45.07592773   0.4891314177E-17
 45.20272064   0.4890884870E-17
 45.32951355   0.4890447705E-17
 45.45630646   0.4890003509E-17
 45.58309937   0.4889552696E-17
 45.70988846   0.4889097333E-17
 45.83668137   0.4888637420E-17
 45.96347427   0.4888175026E-17
 46.09026718   0.4887712632E-17
 46.21706009   0.4887252720E-17
 46.34385300   0.4886797771E-17
 46.47064590   0.4886349852E-17
 46.59743881   0.4885910619E-17
 46.72423172   0.4885482967E-17
 46.85102463   0.4885067309E-17
 46.97781754   0.4884663231E-17
 47.10461044   0.4884270320E-17
 47.23140335   0.4883886508E-17
 47.35819626   0.4883509314E-17
 47.48498917   0.4883135428E-17
 47.61177826   0.4882761543E-17
 47.73857117   0.4882386416E-17
 47.86536407   0.4882005500E-17
 47.99215698   0.4881619206E-17
 48.11894989   0.4881225055E-17
 48.24574280   0.4880821391E-17
 48.37253571   0.4880408627E-17
 48.49932861   0.4879988006E-17
 48.62612152   0.4879560354E-17
 48.75291443   0.4879125257E-17
 48.87970734   0.4878686851E-17
 49.00650024   0.4878244309E-17
 49.13329315   0.4877800113E-17
 49.26008606   0.4877353436E-17
 49.38687897   0.4876902622E-17
 49.51366806   0.4876447673E-17
 49.64046097   0.4875986933E-17
 49.76725388   0.4875519163E-17
 49.89404678   0.4875044361E-17
 50.02083969   0.4874560874E-17
 50.14763260   0.4874072010E-17
 50.27442551   0.4873577770E-17
 50.40121841   0.4873080221E-17
 50.52801132   0.4872583085E-17
 50.65480423   0.4872088431E-17
 50.78159714   0.4871600395E-17
 50.90839005   0.4871121457E-17
 51.03518295   0.4870654100E-17
 51.16197586   0.4870200805E-17
 51.28876877   0.4869760745E-17
 51.41555786   0.4869333506E-17
 51.54235077   0.4868916194E-17
 51.66914368   0.4868507153E-17
 51.79593658   0.4868102661E-17
 51.92272949   0.4867698584E-17
 52.04952240   0.4867292024E-17
 52.17631531   0.4866880502E-17
 52.30310822   0.4866463603E-17
 52.42990112   0.4866042982E-17
 52.55669403   0.4865618638E-17
 52.68348694   0.4865191399E-17
 52.81027985   0.4864763747E-17
 52.93707275   0.4864336922E-17
 53.06386566   0.4863911337E-17
 53.19065857   0.4863485339E-17
 53.31744766   0.4863058514E-17
 53.44424057   0.4862628380E-17
 53.57103348   0.4862194110E-17
 53.69782639   0.4861753223E-17
 53.82461929   0.4861305305E-17
 53.95141220   0.4860847047E-17
 54.07820511   0.4860379276E-17
 54.20499802   0.4859902820E-17
 54.33179092   0.4859418919E-17
 54.45858383   0.4858931296E-17
 54.58537674   0.4858442846E-17
 54.71216965   0.4857957705E-17
 54.83896255   0.4857478354E-17
 54.96575546   0.4857008102E-17
 55.09254837   0.4856547776E-17
 55.21933746   0.4856098616E-17
 55.34613037   0.4855658970E-17
 55.47292328   0.4855226768E-17
 55.59971619   0.4854802011E-17
 55.72650909   0.4854380976E-17
 55.85330200   0.4853961595E-17
 55.98009491   0.4853541801E-17
 56.10688782   0.4853121180E-17
 56.23368073   0.4852698077E-17
 56.36047363   0.4852271665E-17
 56.48726654   0.4851844013E-17
 56.61405945   0.4851413465E-17
 56.74085236   0.4850982504E-17
 56.86764526   0.4850550716E-17
 56.99443817   0.4850119341E-17
 57.12122726   0.4849689621E-17
 57.24802017   0.4849259901E-17
 57.37481308   0.4848830180E-17
 57.50160599   0.4848397979E-17
 57.62839890   0.4847962882E-17
 57.75519180   0.4847521994E-17
 57.88198471   0.4847072835E-17
 58.00877762   0.4846614164E-17
 58.13557053   0.4846144739E-17
 58.26236343   0.4845664974E-17
 58.38915634   0.4845176110E-17
 58.51594925   0.4844680215E-17
 58.64274216   0.4844180598E-17
 58.76953506   0.4843679740E-17
 58.89632797   0.4843179296E-17
 59.02311707   0.4842682988E-17
 59.14990997   0.4842193710E-17
 59.27670288   0.4841711050E-17
 59.40349579   0.4841235835E-17
 59.53028870   0.4840766824E-17
 59.65708160   0.4840303189E-17
 59.78387451   0.4839842863E-17
 59.91066742   0.4839385019E-17
 60.03746033   0.4838928001E-17
 60.16425323   0.4838472225E-17
 60.29104614   0.4838019343E-17
 60.41783905   0.4837569357E-17
 60.54463196   0.4837123507E-17
 60.67142487   0.4836684687E-17
 60.79821777   0.4836252899E-17
 60.92500687   0.4835827315E-17
 61.05179977   0.4835407934E-17
 61.17859268   0.4834991862E-17
 61.30538559   0.4834575377E-17
 61.43217850   0.4834154756E-17
 61.55897141   0.4833727930E-17
 61.68576431   0.4833292833E-17
 61.81255722   0.4832846156E-17
 61.93935013   0.4832389552E-17
 62.06614304   0.4831923436E-17
 62.19293594   0.4831450702E-17
 62.31972885   0.4830974660E-17
 62.44652176   0.4830496549E-17
 62.57331467   0.4830019266E-17
 62.70010757   0.4829544878E-17
 62.82689667   0.4829072971E-17
 62.95368958   0.4828605614E-17
 63.08048248   0.4828140325E-17
 63.20727539   0.4827676691E-17
 63.33406830   0.4827215124E-17
 63.46086121   0.4826754384E-17
 63.58765411   0.4826294472E-17
 63.71444702   0.4825835387E-17
 63.84123993   0.4825377956E-17
 63.96803284   0.4824923006E-17
 64.09482574   0.4824472606E-17
 64.22161865   0.4824024275E-17
 64.34841156   0.4823578838E-17
 64.47520447   0.4823135883E-17
 64.60199738   0.4822692514E-17
 64.72879028   0.4822247904E-17
 64.85558319   0.4821799159E-17
 64.98237610   0.4821343796E-17
 65.10916901   0.4820879747E-17
 65.23596191   0.4820406600E-17
 65.36275482   0.4819923940E-17
 65.48954773   0.4819433836E-17
 65.61633301   0.4818937527E-17
 65.74312592   0.4818437910E-17
 65.86991882   0.4817936225E-17
 65.99671173   0.4817436608E-17
 66.12350464   0.4816940300E-17
 66.25029755   0.4816447714E-17
 66.37709045   0.4815959677E-17
 66.50388336   0.4815475777E-17
 66.63067627   0.4814995185E-17
 66.75746918   0.4814517074E-17
 66.88426208   0.4814040205E-17
 67.01105499   0.4813564576E-17
 67.13784790   0.4813089774E-17
 67.26464081   0.4812616213E-17
 67.39143372   0.4812143479E-17
 67.51822662   0.4811672400E-17
 67.64501953   0.4811204629E-17
 67.77181244   0.4810743476E-17
 67.89860535   0.4810288527E-17
 68.02539825   0.4809841849E-17
 68.15219116   0.4809403030E-17
 68.27898407   0.4808973723E-17
 68.40577698   0.4808551034E-17
 68.53256989   0.4808135789E-17
 68.65936279   0.4807725508E-17
 68.78615570   0.4807316467E-17
 68.91294861   0.4806909081E-17
 69.03974152   0.4806498385E-17
 69.16653442   0.4806084381E-17
 69.29332733   0.4805665828E-17
 69.42011261   0.4805240657E-17
 69.54690552   0.4804808042E-17
 69.67369843   0.4804367982E-17
 69.80049133   0.4803920477E-17
 69.92728424   0.4803466355E-17
 70.05407715   0.4803007270E-17
 70.18087006   0.4802544048E-17
 70.30766296   0.4802077519E-17
 70.43445587   0.4801611402E-17
 70.56124878   0.4801144459E-17
 70.68804169   0.4800678343E-17
 70.81483459   0.4800213053E-17
 70.94162750   0.4799747764E-17
 71.06842041   0.4799281235E-17
 71.19521332   0.4798812637E-17
 71.32200623   0.4798339076E-17
 71.44879913   0.4797860965E-17
 71.57559204   0.4797377065E-17
 71.70238495   0.4796887787E-17
 71.82917786   0.4796393961E-17
 71.95597076   0.4795896411E-17
 72.08276367   0.4795396794E-17
 72.20955658   0.4794896764E-17
 72.33634949   0.4794397974E-17
 72.46314240   0.4793903320E-17
 72.58993530   0.4793410734E-17
 72.71672821   0.4792921043E-17
 72.84352112   0.4792434661E-17
 72.97031403   0.4791948692E-17
 73.09710693   0.4791463551E-17
 73.22389221   0.4790975928E-17
 73.35068512   0.4790486237E-17
 73.47747803   0.4789993237E-17
 73.60427094   0.4789497342E-17
 73.73106384   0.4789001447E-17
 73.85785675   0.4788506793E-17
 73.98464966   0.4788016275E-17
 74.11144257   0.4787532375E-17
 74.23823547   0.4787056746E-17
 74.36502838   0.4786590630E-17
 74.49182129   0.4786134439E-17
 74.61861420   0.4785687762E-17
 74.74540710   0.4785248943E-17
 74.87220001   0.4784813846E-17
 74.99899292   0.4784381644E-17
 75.12578583   0.4783949442E-17
 75.25257874   0.4783514758E-17
 75.37937164   0.4783075112E-17
 75.50616455   0.4782628021E-17
 75.63295746   0.4782173071E-17
 75.75975037   0.4781710678E-17
 75.88654327   0.4781241666E-17
 76.01333618   0.4780768105E-17
 76.14012909   0.4780292476E-17
 76.26692200   0.4779816020E-17
 76.39371490   0.4779342046E-17
 76.52050781   0.4778870966E-17
 76.64730072   0.4778403196E-17
 76.77409363   0.4777938320E-17
 76.90088654   0.4777475513E-17
 77.02767181   0.4777013119E-17
 77.15446472   0.4776549898E-17
 77.28125763   0.4776084195E-17
 77.40805054   0.4775616011E-17
 77.53484344   0.4775144518E-17
 77.66163635   0.4774669303E-17
 77.78842926   0.4774191192E-17
 77.91522217   0.4773712255E-17
 78.04201508   0.4773234144E-17
 78.16880798   0.4772758929E-17
 78.29560089   0.4772289918E-17
 78.42239380   0.4771828351E-17
 78.54918671   0.4771375883E-17
 78.67597961   0.4770934582E-17
 78.80277252   0.4770504862E-17
 78.92956543   0.4770085068E-17
 79.05635834   0.4769673959E-17
 79.18315125   0.4769267813E-17
 79.30994415   0.4768863322E-17
 79.43673706   0.4768456349E-17
 79.56352997   0.4768042759E-17
 79.69032288   0.4767619656E-17
 79.81711578   0.4767183318E-17
 79.94390869   0.4766733745E-17
 80.07070160   0.4766270111E-17
 80.19749451   0.4765792000E-17
 80.32428741   0.4765300241E-17
 80.45108032   0.4764795661E-17
 80.57787323   0.4764281568E-17
 80.70465851   0.4763759204E-17
 80.83145142   0.4763229395E-17
 80.95824432   0.4762693382E-17
 81.08503723   0.4762152406E-17
 81.21183014   0.4761608121E-17
 81.33862305   0.4761061354E-17
 81.46541595   0.4760515002E-17
 81.59220886   0.4759971957E-17
 81.71900177   0.4759435944E-17
 81.84579468   0.4758912753E-17
 81.97258759   0.4758409827E-17
 82.09938049   0.4757931303E-17
 82.22617340   0.4757484625E-17
 82.35296631   0.4757072689E-17
 82.47975922   0.4756696322E-17
 82.60655212   0.4756353042E-17
 82.73334503   0.4756038300E-17
 82.86013794   0.4755745065E-17
 82.98693085   0.4755463823E-17
 83.11372375   0.4755183409E-17
 83.24051666   0.4754892655E-17
 83.36730957   0.4754580808E-17
 83.49410248   0.4754236287E-17
 83.62089539   0.4753849994E-17
 83.74768829   0.4753412415E-17
 83.87448120   0.4752916107E-17
 84.00127411   0.4752354038E-17
 84.12806702   0.4751724967E-17
 84.25485992   0.4751027653E-17
 84.38165283   0.4750262925E-17
 84.50843811   0.4749434917E-17
 84.63523102   0.4748552316E-17
 84.76202393   0.4747626287E-17
 84.88881683   0.4746672961E-17
 85.01560974   0.4745711777E-17
 85.14240265   0.4744765483E-17
 85.26919556   0.4743860133E-17
 85.39598846   0.4743022613E-17
 85.52278137   0.4742283527E-17
 85.64957428   0.4741668932E-17
 85.77636719   0.4741204884E-17
 85.90316010   0.4740911235E-17
 86.02995300   0.4740799979E-17
 86.15674591   0.4740878561E-17
 86.28353882   0.4741142018E-17
 86.41033173   0.4741578769E-17
 86.53712463   0.4742164413E-17
 86.66391754   0.4742866276E-17
 86.79071045   0.4743641344E-17
 86.91750336   0.4744438333E-17
 87.04429626   0.4745197271E-17
 87.17108917   0.4745853639E-17
 87.29788208   0.4746338367E-17
 87.42467499   0.4746583626E-17
 87.55146790   0.4746522001E-17
 87.67826080   0.4746094348E-17
 87.80505371   0.4745253519E-17
 87.93184662   0.4743963945E-17
 88.05863953   0.4742210322E-17
 88.18543243   0.4739998027E-17
 88.31221771   0.4737354358E-17
 88.43901062   0.4734332667E-17
 88.56580353   0.4731011951E-17
 88.69259644   0.4727493124E-17
 88.81938934   0.4723901920E-17
 88.94618225   0.4720381025E-17
 89.07297516   0.4717088433E-17
 89.19976807   0.4714189578E-17
 89.32656097   0.4711849485E-17
 89.45335388   0.4710226556E-17
 89.58014679   0.4709463068E-17
 89.70693970   0.4709674827E-17
 89.83373260   0.4710946617E-17
 89.96052551   0.4713320625E-17
 90.08731842   0.4716788994E-17
 90.21411133   0.4721292165E-17
 90.34090424   0.4726712266E-17
 90.46769714   0.4732869798E-17
 90.59449005   0.4739531911E-17
 90.72128296   0.4746411572E-17
 90.84807587   0.4753176669E-17
 90.97486877   0.4759462001E-17
 91.10166168   0.4764883756E-17
 91.22845459   0.4769053987E-17
 91.35524750   0.4771604185E-17
 91.48204041   0.4772200168E-17
 91.60883331   0.4770568555E-17
 91.73562622   0.4766512475E-17
 91.86241913   0.4759930185E-17
 91.98921204   0.4750833266E-17
 92.11599731   0.4739358617E-17
 92.24279022   0.4725773416E-17
 92.36958313   0.4710481328E-17
 92.49637604   0.4694009680E-17
 92.62316895   0.4677005742E-17
 92.74996185   0.4660214389E-17
 92.87675476   0.4644447500E-17
 93.00354767   0.4630559137E-17
 93.13034058   0.4619400471E-17
 93.25713348   0.4611780069E-17
 93.38392639   0.4608422957E-17
 93.51071930   0.4609918086E-17
 93.63751221   0.4616681528E-17
 93.76430511   0.4628915943E-17
 93.89109802   0.4646577490E-17
 94.01789093   0.4669351013E-17
 94.14468384   0.4696639701E-17
 94.27147675   0.4727563021E-17
 94.39826965   0.4760971192E-17
 94.52506256   0.4795474136E-17
 94.65185547   0.4829485321E-17
 94.77864838   0.4861278835E-17
 94.90544128   0.4889063832E-17
 95.03223419   0.4911062700E-17
 95.15902710   0.4925601227E-17
 95.28582001   0.4931202067E-17
 95.41261292   0.4926681111E-17
 95.53940582   0.4911231859E-17
 95.66619873   0.4884506067E-17
 95.79299164   0.4846677856E-17
 95.91977692   0.4798487555E-17
 96.04656982   0.4741261132E-17
 96.17336273   0.4676903585E-17
 96.30015564   0.4607862955E-17
 96.42694855   0.4537058363E-17
 96.55374146   0.4467783227E-17
 96.68053436   0.4403577055E-17
 96.80732727   0.4348072822E-17
 96.93412018   0.4304823684E-17
 97.06091309   0.4277119337E-17
 97.18770599   0.4267791221E-17
 97.31449890   0.4279029711E-17
 97.44129181   0.4312209166E-17
 97.56808472   0.4367739868E-17
 97.69487762   0.4444954283E-17
 97.82167053   0.4542030132E-17
 97.94846344   0.4655977570E-17
 98.07525635   0.4782670207E-17
 98.20204926   0.4916942714E-17
 98.32884216   0.5052753362E-17
 98.45563507   0.5183399509E-17
 98.58242798   0.5301793043E-17
 98.70922089   0.5400779265E-17
 98.83601379   0.5473495059E-17
 98.96280670   0.5513738636E-17
 99.08959961   0.5516352113E-17
 99.21639252   0.5477579263E-17
 99.34318542   0.5395396801E-17
 99.46997833   0.5269781153E-17
 99.59677124   0.5102904496E-17
 99.72355652   0.4899240221E-17
 99.85034943   0.4665559630E-17
 99.97714233   0.4410812817E-17
 100.1039352   0.4145887133E-17
 100.2307281   0.3883248189E-17
 100.3575211   0.3636462989E-17
 100.4843140   0.3419620280E-17
 100.6111069   0.3246672944E-17
 100.7378998   0.3130720213E-17
 100.8646927   0.3083264448E-17
 100.9914856   0.3113475979E-17
 101.1182785   0.3227500965E-17
 101.2450714   0.3427862308E-17
 101.3718643   0.3712977610E-17
 101.4986572   0.4076835336E-17
 101.6254501   0.4508869702E-17
 101.7522430   0.4994044632E-17
 101.8790359   0.5513169122E-17
 102.0058289   0.6043454347E-17
 102.1326218   0.6559299480E-17
 102.2594147   0.7033295064E-17
 102.3862076   0.7437411671E-17
 102.5130005   0.7744331247E-17
 102.6397934   0.7928870278E-17
 102.7665863   0.7969434389E-17
 102.8933792   0.7849429507E-17
 103.0201721   0.7558564679E-17
 103.1469650   0.7093962145E-17
 103.2737579   0.6461012225E-17
 103.4005508   0.5673896106E-17
 103.5273361   0.4755735552E-17
 103.6541290   0.3738312084E-17
 103.7809219   0.2661341331E-17
 103.9077148   0.1571289131E-17
 104.0345078   0.5197565598E-18
 104.1613007   -0.4385369879E-18
 104.2880936   -0.1248111423E-17
 104.4148865   -0.1855324962E-17
 104.5416794   -0.2211129258E-17
 104.6684723   -0.2273849607E-17
 104.7952652   -0.2011863516E-17
 104.9220581   -0.1406033540E-17
 105.0488510   -0.4517604522E-18
 105.1756439   0.8394688975E-18
 105.3024368   0.2439181712E-17
 105.4292297   0.4301730442E-17
 105.5560226   0.6364919481E-17
 105.6828156   0.8551461829E-17
 105.8096085   0.1077128455E-16
 105.9364014   0.1292461849E-16
 106.0631943   0.1490584427E-16
 106.1899872   0.1660790238E-16
 106.3167801   0.1792716943E-16
 106.4435730   0.1876857755E-16
 106.5703659   0.1905074871E-16
 106.6971588   0.1871092803E-16
 106.8239517   0.1770944061E-16
 106.9507446   0.1603345026E-16
 107.0775375   0.1369976365E-16
 107.2043304   0.1075648629E-16
 107.3311157   0.7283364171E-17
 107.4579086   0.3390676817E-17
 107.5847015   -0.7833535335E-18
 107.7114944   -0.5076657228E-17
 107.8382874   -0.9308816817E-17
 107.9650803   -0.1328784259E-16
 108.0918732   -0.1681798971E-16
 108.2186661   -0.1970833083E-16
 108.3454590   -0.2178175333E-16
 108.4722519   -0.2288400128E-16
 108.5990448   -0.2289229624E-16
 108.7258377   -0.2172318067E-16
 108.8526306   -0.1933912042E-16
 108.9794235   -0.1575346782E-16
 109.1062164   -0.1103347681E-16
 109.2330093   -0.5301045272E-17
 109.3598022   0.1268955547E-17
 109.4865952   0.8452868517E-17
 109.6133881   0.1598494439E-16
 109.7401810   0.2356642859E-16
 109.8669739   0.3087668027E-16
 109.9937668   0.3758605471E-16
 110.1205597   0.4336999272E-16
 110.2473526   0.4792381059E-16
 110.3741455   0.5097747686E-16
 110.5009384   0.5230975050E-16
 110.6277313   0.5176096249E-16
 110.7545242   0.4924376586E-16
 110.8813171   0.4475126523E-16
 111.0081024   0.3836195675E-16
 111.1348953   0.3024101513E-16
 111.2616882   0.2063778074E-16
 111.3884811   0.9879241394E-17
 111.5152740   -0.1640427368E-17
 111.6420670   -0.1347395492E-16
 111.7688599   -0.2513819749E-16
 111.8956528   -0.3613404172E-16
 112.0224457   -0.4596800159E-16
 112.1492386   -0.5417473838E-16
 112.2760315   -0.6033934491E-16
 112.4028244   -0.6411853461E-16
 112.5296173   -0.6525948137E-16
 112.6564102   -0.6361540365E-16
 112.7832031   -0.5915686706E-16
 112.9099960   -0.5197830585E-16
 113.0367889   -0.4229880376E-16
 113.1635818   -0.3045716073E-16
 113.2903748   -0.1690100060E-16
 113.4171677   -0.2170198293E-17
 113.5439606   0.1312490869E-16
 113.6707535   0.2832961911E-16
 113.7975464   0.4277430357E-16