 -4.500000000   -0.1557302954E-17
 -4.373207569   -0.1556053498E-17
 -4.246414661   -0.1554127614E-17
 -4.119622231   -0.1551926177E-17
 -3.992829323   -0.1549710470E-17
 -3.866036654   -0.1547633213E-17
 -3.739243984   -0.1545773814E-17
 -3.612451553   -0.1544167636E-17
 -3.485658884   -0.1542826776E-17
 -3.358866215   -0.1541751752E-17
 -3.232073545   -0.1540934807E-17
 -3.105280876   -0.1540354333E-17
 -2.978488207   -0.1539978483E-17
 -2.851695538   -0.1539760831E-17
 -2.724902868   -0.1539646163E-17
 -2.598110199   -0.1539576990E-17
 -2.471317530   -0.1539500166E-17
 -2.344524860   -0.1539375262E-17
 -2.217732191   -0.1539174360E-17
 -2.090939522   -0.1538883813E-17
 -1.964146972   -0.1538498864E-17
 -1.837354302   -0.1538019616E-17
 -1.710561633   -0.1537449275E-17
 -1.583768964   -0.1536790736E-17
 -1.456976295   -0.1536046170E-17
 -1.330183744   -0.1535218783E-17
 -1.203391075   -0.1534316846E-17
 -1.076598406   -0.1533350699E-17
 -0.9498057365   -0.1532333163E-17
 -0.8230130672   -0.1531276336E-17
 -0.6962204576   -0.1530190041E-17
 -0.5694277883   -0.1529079448E-17
 -0.4426351190   -0.1527949106E-17
 -0.3158424795   -0.1526796326E-17
 -0.1890498251   -0.1525621006E-17
 -0.6225717068E-01   -0.1524424903E-17
 0.6453548372E-01   -0.1523214427E-17
 0.1913281381   -0.1522000333E-17
 0.3181207776   -0.1520797923E-17
 0.4449134469   -0.1519622189E-17
 0.5717061162   -0.1518486470E-17
 0.6984987259   -0.1517398624E-17
 0.8252913952   -0.1516362063E-17
 0.9520840645   -0.1515372342E-17
 1.078876734   -0.1514425633E-17
 1.205669403   -0.1513515631E-17
 1.332461953   -0.1512636235E-17
 1.459254622   -0.1511784549E-17
 1.586047292   -0.1510958816E-17
 1.712839961   -0.1510155417E-17
 1.839632630   -0.1509369802E-17
 1.966425300   -0.1508596181E-17
 2.093217850   -0.1507826076E-17
 2.220010519   -0.1507053490E-17
 2.346803188   -0.1506274389E-17
 2.473595858   -0.1505487843E-17
 2.600388527   -0.1504698713E-17
 2.727181196   -0.1503910720E-17
 2.853973866   -0.1503130275E-17
 2.980766535   -0.1502361307E-17
 3.107559204   -0.1501602369E-17
 3.234351873   -0.1500850565E-17
 3.361144543   -0.1500101450E-17
 3.487936974   -0.1499349646E-17
 3.614729643   -0.1498593913E-17
 3.741522312   -0.1497836009E-17
 3.868314981   -0.1497079035E-17
 3.995107651   -0.1496327542E-17
 4.121900558   -0.1495585354E-17
 4.248692989   -0.1494852058E-17
 4.375485420   -0.1494126414E-17
 4.502278328   -0.1493402218E-17
 4.629070759   -0.1492675746E-17
 4.755863667   -0.1491941727E-17
 4.882656097   -0.1491198919E-17
 5.009449005   -0.1490446701E-17
 5.136241436   -0.1489685385E-17
 5.263034344   -0.1488913832E-17
 5.389826775   -0.1488129251E-17
 5.516619682   -0.1487327093E-17
 5.643412113   -0.1486501980E-17
 5.770205021   -0.1485645642E-17
 5.896997452   -0.1484756733E-17
 6.023790359   -0.1483833082E-17
 6.150582790   -0.1482880480E-17
 6.277375221   -0.1481904924E-17
 6.404168129   -0.1480917270E-17
 6.530960560   -0.1479924033E-17
 6.657753468   -0.1478929969E-17
 6.784545898   -0.1477938180E-17
 6.911338806   -0.1476949492E-17
 7.038131237   -0.1475966698E-17
 7.164924145   -0.1474992589E-17
 7.291716576   -0.1474031302E-17
 7.418509483   -0.1473087799E-17
 7.545301914   -0.1472170559E-17
 7.672094822   -0.1471279686E-17
 7.798887253   -0.1470415696E-17
 7.925679684   -0.1469573522E-17
 8.052472115   -0.1468746859E-17
 8.179265022   -0.1467928777E-17
 8.306057930   -0.1467111833E-17
 8.432850838   -0.1466292614E-17
 8.559642792   -0.1465469156E-17
 8.686435699   -0.1464640734E-17
 8.813228607   -0.1463806523E-17
 8.940021515   -0.1462964659E-17
 9.066813469   -0.1462111009E-17
 9.193606377   -0.1461239884E-17
 9.320399284   -0.1460346426E-17
 9.447192192   -0.1459428669E-17
 9.573984146   -0.1458488578E-17
 9.700777054   -0.1457533288E-17
 9.827569962   -0.1456569519E-17
 9.954361916   -0.1455606681E-17
 10.08115482   -0.1454652425E-17
 10.20794773   -0.1453712748E-17
 10.33474064   -0.1452789097E-17
 10.46153259   -0.1451883128E-17
 10.58832550   -0.1450994529E-17
 10.71511841   -0.1450125679E-17
 10.84191132   -0.1449280714E-17
 10.96870327   -0.1448464390E-17
 11.09549618   -0.1447680223E-17
 11.22228909   -0.1446931935E-17
 11.34908199   -0.1446219215E-17
 11.47587395   -0.1445540100E-17
 11.60266685   -0.1444889832E-17
 11.72945976   -0.1444264174E-17
 11.85625172   -0.1443660435E-17
 11.98304462   -0.1443076756E-17
 12.10983753   -0.1442515204E-17
 12.23663044   -0.1441974538E-17
 12.36342239   -0.1441454655E-17
 12.49021530   -0.1440951832E-17
 12.61700821   -0.1440460487E-17
 12.74380112   -0.1439972968E-17
 12.87059307   -0.1439482036E-17
 12.99738598   -0.1438981798E-17
 13.12417889   -0.1438469670E-17
 13.25097084   -0.1437944410E-17
 13.37776375   -0.1437410362E-17
 13.50455666   -0.1436869799E-17
 13.63134956   -0.1436324481E-17
 13.75814152   -0.1435774302E-17
 13.88493443   -0.1435218850E-17
 14.01172733   -0.1434657815E-17
 14.13852024   -0.1434091196E-17
 14.26531219   -0.1433521579E-17
 14.39210510   -0.1432951238E-17
 14.51889801   -0.1432386170E-17
 14.64569092   -0.1431831029E-17
 14.77248287   -0.1431288708E-17
 14.89927578   -0.1430761794E-17
 15.02606869   -0.1430248219E-17
 15.15286064   -0.1429744672E-17
 15.27965355   -0.1429247847E-17
 15.40644646   -0.1428755881E-17
 15.53323936   -0.1428267638E-17
 15.66003132   -0.1427786529E-17
 15.78682423   -0.1427313278E-17
 15.91361713   -0.1426850884E-17
 16.04040909   -0.1426397486E-17
 16.16720200   -0.1425952360E-17
 16.29399490   -0.1425510749E-17
 16.42078781   -0.1425069861E-17
 16.54758072   -0.1424626906E-17
 16.67437363   -0.1424180125E-17
 16.80116463   -0.1423729415E-17
 16.92795753   -0.1423277878E-17
 17.05475044   -0.1422825617E-17
 17.18154335   -0.1422373459E-17
 17.30833626   -0.1421920268E-17
 17.43512917   -0.1421464181E-17
 17.56192207   -0.1421001167E-17
 17.68871498   -0.1420530294E-17
 17.81550598   -0.1420052080E-17
 17.94229889   -0.1419570144E-17
 18.06909180   -0.1419088311E-17
 18.19588470   -0.1418613510E-17
 18.32267761   -0.1418149565E-17
 18.44947052   -0.1417695132E-17
 18.57626343   -0.1417250420E-17
 18.70305443   -0.1416811083E-17
 18.82984734   -0.1416371747E-17
 18.95664024   -0.1415927654E-17
 19.08343315   -0.1415477771E-17
 19.21022606   -0.1415020237E-17
 19.33701897   -0.1414554224E-17
 19.46381187   -0.1414080353E-17
 19.59060478   -0.1413597900E-17
 19.71739578   -0.1413106451E-17
 19.84418869   -0.1412601975E-17
 19.97098160   -0.1412083332E-17
 20.09777451   -0.1411550731E-17
 20.22456741   -0.1411003965E-17
 20.35136032   -0.1410446549E-17
 20.47815323   -0.1409880654E-17
 20.60494423   -0.1409307935E-17
 20.73173714   -0.1408729322E-17
 20.85853004   -0.1408145436E-17
 20.98532295   -0.1407552761E-17
 21.11211586   -0.1406948712E-17
 21.23890877   -0.1406331325E-17
 21.36570168   -0.1405700910E-17
 21.49249458   -0.1405060672E-17
 21.61928558   -0.1404415161E-17
 21.74607849   -0.1403769237E-17
 21.87287140   -0.1403126931E-17
 21.99966431   -0.1402489692E-17
 22.12645721   -0.1401858346E-17
 22.25325012   -0.1401231033E-17
 22.38004303   -0.1400604754E-17
 22.50683403   -0.1399978475E-17
 22.63362694   -0.1399352402E-17
 22.76041985   -0.1398726640E-17
 22.88721275   -0.1398104083E-17
 23.01400566   -0.1397485869E-17
 23.14079857   -0.1396869723E-17
 23.26759148   -0.1396255231E-17
 23.39438438   -0.1395638982E-17
 23.52117538   -0.1395017356E-17
 23.64796829   -0.1394386837E-17
 23.77476120   -0.1393746806E-17
 23.90155411   -0.1393095505E-17
 24.02834702   -0.1392433760E-17
 24.15513992   -0.1391760642E-17
 24.28193283   -0.1391076977E-17
 24.40872383   -0.1390380491E-17
 24.53551674   -0.1389668599E-17
 24.66230965   -0.1388938302E-17
 24.78910255   -0.1388189910E-17
 24.91589546   -0.1387423941E-17
 25.04268837   -0.1386643703E-17
 25.16948128   -0.1385854469E-17
 25.29627419   -0.1385063168E-17
 25.42306519   -0.1384275795E-17
 25.54985809   -0.1383496384E-17
 25.67665100   -0.1382726899E-17
 25.80344391   -0.1381968685E-17
 25.93023682   -0.1381222361E-17
 26.05702972   -0.1380488342E-17
 26.18382263   -0.1379767557E-17
 26.31061363   -0.1379062179E-17
 26.43740654   -0.1378371793E-17
 26.56419945   -0.1377696711E-17
 26.69099236   -0.1377033725E-17
 26.81778526   -0.1376380046E-17
 26.94457817   -0.1375730089E-17
 27.07137108   -0.1375077650E-17
 27.19816399   -0.1374418180E-17
 27.32495499   -0.1373751679E-17
 27.45174789   -0.1373076183E-17
 27.57854080   -0.1372394586E-17
 27.70533371   -0.1371708750E-17
 27.83212662   -0.1371018364E-17
 27.95891953   -0.1370324567E-17
 28.08571243   -0.1369623428E-17
 28.21250343   -0.1368912156E-17
 28.33929634   -0.1368184961E-17
 28.46608925   -0.1367439154E-17
 28.59288216   -0.1366672771E-17
 28.71967506   -0.1365887053E-17
 28.84646797   -0.1365082620E-17
 28.97326088   -0.1364262884E-17
 29.10005379   -0.1363428569E-17
 29.22684479   -0.1362582156E-17
 29.35363770   -0.1361726645E-17
 29.48043060   -0.1360864102E-17
 29.60722351   -0.1359999802E-17
 29.73401642   -0.1359138190E-17
 29.86080933   -0.1358285470E-17
 29.98760223   -0.1357443503E-17
 30.11439323   -0.1356613738E-17
 30.24118614   -0.1355794312E-17
 30.36797905   -0.1354982124E-17
 30.49477196   -0.1354171694E-17
 30.62156487   -0.1353357852E-17
 30.74835777   -0.1352538736E-17
 30.87515068   -0.1351712693E-17
 31.00194168   -0.1350881376E-17
 31.12873459   -0.1350050267E-17
 31.25552750   -0.1349225878E-17
 31.38232040   -0.1348410795E-17
 31.50911331   -0.1347609877E-17
 31.63590622   -0.1346824159E-17
 31.76269913   -0.1346054054E-17
 31.88949203   -0.1345298217E-17
 32.01628494   -0.1344555202E-17
 32.14307785   -0.1343822217E-17
 32.26987076   -0.1343096676E-17
 32.39666367   -0.1342376202E-17
 32.52345276   -0.1341659657E-17
 32.65024567   -0.1340943732E-17
 32.77703857   -0.1340226566E-17
 32.90383148   -0.1339506195E-17
 33.03062439   -0.1338780654E-17
 33.15741730   -0.1338053046E-17
 33.28421021   -0.1337325954E-17
 33.41100311   -0.1336604135E-17
 33.53779602   -0.1335890692E-17
 33.66458893   -0.1335189553E-17
 33.79138184   -0.1334502063E-17
 33.91817474   -0.1333825739E-17
 34.04496765   -0.1333157481E-17
 34.17176056   -0.1332492427E-17
 34.29855347   -0.1331827684E-17
 34.42534256   -0.1331160873E-17
 34.55213547   -0.1330492615E-17
 34.67892838   -0.1329823529E-17
 34.80572128   -0.1329154960E-17
 34.93251419   -0.1328490528E-17
 35.05930710   -0.1327830127E-17
 35.18610001   -0.1327173966E-17
 35.31289291   -0.1326521838E-17
 35.43968582   -0.1325872604E-17
 35.56647873   -0.1325226266E-17
 35.69327164   -0.1324582926E-17
 35.82006454   -0.1323942895E-17
 35.94685745   -0.1323307104E-17
 36.07365036   -0.1322675241E-17
 36.20044327   -0.1322047825E-17
 36.32723236   -0.1321424544E-17
 36.45402527   -0.1320805296E-17
 36.58081818   -0.1320189667E-17
 36.70761108   -0.1319579001E-17
 36.83440399   -0.1318974125E-17
 36.96119690   -0.1318378762E-17
 37.08798981   -0.1317793118E-17
 37.21478271   -0.1317217607E-17
 37.34157562   -0.1316651298E-17
 37.46836853   -0.1316090366E-17
 37.59516144   -0.1315530365E-17
 37.72195435   -0.1314965297E-17
 37.84874725   -0.1314392371E-17
 37.97554016   -0.1313807865E-17
 38.10232925   -0.1313210744E-17
 38.22912216   -0.1312600802E-17
 38.35591507   -0.1311978969E-17
 38.48270798   -0.1311346589E-17
 38.60950089   -0.1310702732E-17
 38.73629379   -0.1310047916E-17
 38.86308670   -0.1309381828E-17
 38.98987961   -0.1308703644E-17
 39.11667252   -0.1308013878E-17
 39.24346542   -0.1307315324E-17
 39.37025833   -0.1306611187E-17
 39.49705124   -0.1305904671E-17
 39.62384415   -0.1305197535E-17
 39.75063705   -0.1304491433E-17
 39.87742996   -0.1303787296E-17
 40.00421906   -0.1303083882E-17
 40.13101196   -0.1302381399E-17
 40.25780487   -0.1301680363E-17
 40.38459778   -0.1300980362E-17
 40.51139069   -0.1300283669E-17
 40.63818359   -0.1299591215E-17
 40.76497650   -0.1298903415E-17
 40.89176941   -0.1298220267E-17
 41.01856232   -0.1297541358E-17
 41.14535522   -0.1296863587E-17
 41.27214813   -0.1296184989E-17
 41.39894104   -0.1295505563E-17
 41.52573395   -0.1294826655E-17
 41.65252686   -0.1294148263E-17
 41.77931976   -0.1293473284E-17
 41.90610886   -0.1292802854E-17
 42.03290176   -0.1292138525E-17
 42.15969467   -0.1291478848E-17
 42.28648758   -0.1290823101E-17
 42.41328049   -0.1290170248E-17
 42.54007339   -0.1289516569E-17
 42.66686630   -0.1288861649E-17
 42.79365921   -0.1288204764E-17
 42.92045212   -0.1287548396E-17
 43.04724503   -0.1286894200E-17
 43.17403793   -0.1286244036E-17
 43.30083084   -0.1285599869E-17
 43.42762375   -0.1284960975E-17
 43.55441666   -0.1284323943E-17
 43.68120956   -0.1283686393E-17
 43.80799866   -0.1283046879E-17
 43.93479156   -0.1282405918E-17
 44.06158447   -0.1281762061E-17
 44.18837738   -0.1281117067E-17
 44.31517029   -0.1280471039E-17
 44.44196320   -0.1279823356E-17
 44.56875610   -0.1279174020E-17
 44.69554901   -0.1278522615E-17
 44.82234192   -0.1277867901E-17
 44.94913483   -0.1277211327E-17
 45.07592773   -0.1276552891E-17
 45.20272064   -0.1275896006E-17
 45.32951355   -0.1275243671E-17
 45.45630646   -0.1274598160E-17
 45.58309937   -0.1273960714E-17
 45.70988846   -0.1273329575E-17
 45.83668137   -0.1272702262E-17
 45.96347427   -0.1272075879E-17
 46.09026718   -0.1271449393E-17
 46.21706009   -0.1270820736E-17
 46.34385300   -0.1270191355E-17
 46.47064590   -0.1269561664E-17
 46.59743881   -0.1268932903E-17
 46.72423172   -0.1268307141E-17
 46.85102463   -0.1267684791E-17
 46.97781754   -0.1267065440E-17
 47.10461044   -0.1266446915E-17
 47.23140335   -0.1265828184E-17
 47.35819626   -0.1265208212E-17
 47.48498917   -0.1264587000E-17
 47.61177826   -0.1263966407E-17
 47.73857117   -0.1263347780E-17
 47.86536407   -0.1262733081E-17
 47.99215698   -0.1262122208E-17
 48.11894989   -0.1261513920E-17
 48.24574280   -0.1260907390E-17
 48.37253571   -0.1260301273E-17
 48.49932861   -0.1259696501E-17
 48.62612152   -0.1259092349E-17
 48.75291443   -0.1258491092E-17
 48.87970734   -0.1257895315E-17
 49.00650024   -0.1257306569E-17
 49.13329315   -0.1256725578E-17
 49.26008606   -0.1256151515E-17
 49.38687897   -0.1255582415E-17
 49.51366806   -0.1255015486E-17
 49.64046097   -0.1254447730E-17
 49.76725388   -0.1253877802E-17
 49.89404678   -0.1253305187E-17
 50.02083969   -0.1252729262E-17
 50.14763260   -0.1252150649E-17
 50.27442551   -0.1251567487E-17
 50.40121841   -0.1250980085E-17
 50.52801132   -0.1250386893E-17
 50.65480423   -0.1249786257E-17
 50.78159714   -0.1249176832E-17
 50.90839005   -0.1248561099E-17
 51.03518295   -0.1247940714E-17
 51.16197586   -0.1247318364E-17
 51.28876877   -0.1246696220E-17
 51.41555786   -0.1246075318E-17
 51.54235077   -0.1245456690E-17
 51.66914368   -0.1244838476E-17
 51.79593658   -0.1244218814E-17
 51.92272949   -0.1243596258E-17
 52.04952240   -0.1242968014E-17
 52.17631531   -0.1242333980E-17
 52.30310822   -0.1241695086E-17
 52.42990112   -0.1241053298E-17
 52.55669403   -0.1240411095E-17
 52.68348694   -0.1239768893E-17
 52.81027985   -0.1239128242E-17
 52.93707275   -0.1238488831E-17
 53.06386566   -0.1237850454E-17
 53.19065857   -0.1237213112E-17
 53.31744766   -0.1236577423E-17
 53.44424057   -0.1235944527E-17
 53.57103348   -0.1235313595E-17
 53.69782639   -0.1234684627E-17
 53.82461929   -0.1234057728E-17
 53.95141220   -0.1233430725E-17
 54.07820511   -0.1232801344E-17
 54.20499802   -0.1232168034E-17
 54.33179092   -0.1231529243E-17
 54.45858383   -0.1230886938E-17
 54.58537674   -0.1230242357E-17
 54.71216965   -0.1229596743E-17
 54.83896255   -0.1228951955E-17
 54.96575546   -0.1228309753E-17
 55.09254837   -0.1227670446E-17
 55.21933746   -0.1227032483E-17
 55.34613037   -0.1226395244E-17
 55.47292328   -0.1225760382E-17
 55.59971619   -0.1225128003E-17
 55.72650909   -0.1224501310E-17
 55.85330200   -0.1223881752E-17
 55.98009491   -0.1223276049E-17
 56.10688782   -0.1222685339E-17
 56.23368073   -0.1222112206E-17
 56.36047363   -0.1221556651E-17
 56.48726654   -0.1221017329E-17
 56.61405945   -0.1220492276E-17
 56.74085236   -0.1219978493E-17
 56.86764526   -0.1219471742E-17
 56.99443817   -0.1218968506E-17
 57.12122726   -0.1218465994E-17
 57.24802017   -0.1217960069E-17
 57.37481308   -0.1217448561E-17
 57.50160599   -0.1216928678E-17
 57.62839890   -0.1216398662E-17
 57.75519180   -0.1215858824E-17
 57.88198471   -0.1215309576E-17
 58.00877762   -0.1214753193E-17
 58.13557053   -0.1214193813E-17
 58.26236343   -0.1213633191E-17
 58.38915634   -0.1213074224E-17
 58.51594925   -0.1212518151E-17
 58.64274216   -0.1211964974E-17
 58.76953506   -0.1211413142E-17
 58.89632797   -0.1210859758E-17
 59.02311707   -0.1210302031E-17
 59.14990997   -0.1209738411E-17
 59.27670288   -0.1209167346E-17
 59.40349579   -0.1208590698E-17
 59.53028870   -0.1208008363E-17
 59.65708160   -0.1207421685E-17
 59.78387451   -0.1206831388E-17
 59.91066742   -0.1206238713E-17
 60.03746033   -0.1205643557E-17
 60.16425323   -0.1205046849E-17
 60.29104614   -0.1204447350E-17
 60.41783905   -0.1203845163E-17
 60.54463196   -0.1203239666E-17
 60.67142487   -0.1202632723E-17
 60.79821777   -0.1202020919E-17
 60.92500687   -0.1201404773E-17
 61.05179977   -0.1200781906E-17
 61.17859268   -0.1200152318E-17
 61.30538559   -0.1199516010E-17
 61.43217850   -0.1198875048E-17
 61.55897141   -0.1198231295E-17
 61.68576431   -0.1197589403E-17
 61.81255722   -0.1196952060E-17
 61.93935013   -0.1196322575E-17
 62.06614304   -0.1195702087E-17
 62.19293594   -0.1195090800E-17
 62.31972885   -0.1194489543E-17
 62.44652176   -0.1193895938E-17
 62.57331467   -0.1193306675E-17
 62.70010757   -0.1192720721E-17
 62.82689667   -0.1192135594E-17
 62.95368958   -0.1191549950E-17
 63.08048248   -0.1190962238E-17
 63.20727539   -0.1190372665E-17
 63.33406830   -0.1189781335E-17
 63.46086121   -0.1189188556E-17
 63.58765411   -0.1188593710E-17
 63.71444702   -0.1187997933E-17
 63.84123993   -0.1187401639E-17
 63.96803284   -0.1186803898E-17
 64.09482574   -0.1186204502E-17
 64.22161865   -0.1185604900E-17
 64.34841156   -0.1185003849E-17
 64.47520447   -0.1184402282E-17
 64.60199738   -0.1183799578E-17
 64.72879028   -0.1183196150E-17
 64.85558319   -0.1182593652E-17
 64.98237610   -0.1181993739E-17
 65.10916901   -0.1181398583E-17
 65.23596191   -0.1180810044E-17
 65.36275482   -0.1180230190E-17
 65.48954773   -0.1179660366E-17
 65.61633301   -0.1179100985E-17
 65.74312592   -0.1178551634E-17
 65.86991882   -0.1178011899E-17
 65.99671173   -0.1177481986E-17
 66.12350464   -0.1176959311E-17
 66.25029755   -0.1176443047E-17
 66.37709045   -0.1175932160E-17
 66.50388336   -0.1175424374E-17
 66.63067627   -0.1174918036E-17
 66.75746918   -0.1174413560E-17
 66.88426208   -0.1173907222E-17
 67.01105499   -0.1173398195E-17
 67.13784790   -0.1172884103E-17
 67.26464081   -0.1172363392E-17
 67.39143372   -0.1171836272E-17
 67.51822662   -0.1171300569E-17
 67.64501953   -0.1170757214E-17
 67.77181244   -0.1170205588E-17
 67.89860535   -0.1169646518E-17
 68.02539825   -0.1169081657E-17
 68.15219116   -0.1168511729E-17
 68.27898407   -0.1167937976E-17
 68.40577698   -0.1167362879E-17
 68.53256989   -0.1166786024E-17
 68.65936279   -0.1166206480E-17
 68.78615570   -0.1165624455E-17
 68.91294861   -0.1165039122E-17
 69.03974152   -0.1164449549E-17
 69.16653442   -0.1163857287E-17
 69.29332733   -0.1163260994E-17
 69.42011261   -0.1162662322E-17
 69.54690552   -0.1162062822E-17
 69.67369843   -0.1161464978E-17
 69.80049133   -0.1160870235E-17
 69.92728424   -0.1160280765E-17
 70.05407715   -0.1159697603E-17
 70.18087006   -0.1159121368E-17
 70.30766296   -0.1158550820E-17
 70.43445587   -0.1157986993E-17
 70.56124878   -0.1157427716E-17
 70.68804169   -0.1156871127E-17
 70.81483459   -0.1156314744E-17
 70.94162750   -0.1155756708E-17
 71.06842041   -0.1155193501E-17
 71.19521332   -0.1154625745E-17
 71.32200623   -0.1154050441E-17
 71.44879913   -0.1153468933E-17
 71.57559204   -0.1152882048E-17
 71.70238495   -0.1152291648E-17
 71.82917786   -0.1151698249E-17
 71.95597076   -0.1151104437E-17
 72.08276367   -0.1150512176E-17
 72.20955658   -0.1149920948E-17
 72.33634949   -0.1149331065E-17
 72.46314240   -0.1148741802E-17
 72.58993530   -0.1148151506E-17
 72.71672821   -0.1147560899E-17
 72.84352112   -0.1146969051E-17
 72.97031403   -0.1146376893E-17
 73.09710693   -0.1145785459E-17
 73.22389221   -0.1145194955E-17
 73.35068512   -0.1144606003E-17
 73.47747803   -0.1144020049E-17
 73.60427094   -0.1143437093E-17
 73.73106384   -0.1142857653E-17
 73.85785675   -0.1142284210E-17
 73.98464966   -0.1141717591E-17
 74.11144257   -0.1141160279E-17
 74.23823547   -0.1140612685E-17
 74.36502838   -0.1140073156E-17
 74.49182129   -0.1139540762E-17
 74.61861420   -0.1139013331E-17
 74.74540710   -0.1138488072E-17
 74.87220001   -0.1137962605E-17
 74.99899292   -0.1137433313E-17
 75.12578583   -0.1136900092E-17
 75.25257874   -0.1136362734E-17
 75.37937164   -0.1135820828E-17
 75.50616455   -0.1135273854E-17
 75.63295746   -0.1134721401E-17
 75.75975037   -0.1134166156E-17
 75.88654327   -0.1133607499E-17
 76.01333618   -0.1133047498E-17
 76.14012909   -0.1132488220E-17
 76.26692200   -0.1131932975E-17
 76.39371490   -0.1131381246E-17
 76.52050781   -0.1130834376E-17
 76.64730072   -0.1130292676E-17
 76.77409363   -0.1129756560E-17
 76.90088654   -0.1129223132E-17
 77.02767181   -0.1128689807E-17
 77.15446472   -0.1128155138E-17
 77.28125763   -0.1127618918E-17
 77.40805054   -0.1127081147E-17
 77.53484344   -0.1126544307E-17
 77.66163635   -0.1126010052E-17
 77.78842926   -0.1125479829E-17
 77.91522217   -0.1124954570E-17
 78.04201508   -0.1124435307E-17
 78.16880798   -0.1123919043E-17
 78.29560089   -0.1123404330E-17
 78.42239380   -0.1122888686E-17
 78.54918671   -0.1122368700E-17
 78.67597961   -0.1121843440E-17
 78.80277252   -0.1121311253E-17
 78.92956543   -0.1120771621E-17
 79.05635834   -0.1120223924E-17
 79.18315125   -0.1119669402E-17
 79.30994415   -0.1119108264E-17
 79.43673706   -0.1118542576E-17
 79.56352997   -0.1117973682E-17
 79.69032288   -0.1117404065E-17
 79.81711578   -0.1116836205E-17
 79.94390869   -0.1116271241E-17
 80.07070160   -0.1115708862E-17
 80.19749451   -0.1115149791E-17
 80.32428741   -0.1114592685E-17
 80.45108032   -0.1114037026E-17
 80.57787323   -0.1113481264E-17
 80.70465851   -0.1112923745E-17
 80.83145142   -0.1112364260E-17
 80.95824432   -0.1111803328E-17
 81.08503723   -0.1111242397E-17
 81.21183014   -0.1110683533E-17
 81.33862305   -0.1110129218E-17
 81.46541595   -0.1109579557E-17
 81.59220886   -0.1109034341E-17
 81.71900177   -0.1108493158E-17
 81.84579468   -0.1107954457E-17
 81.97258759   -0.1107418754E-17
 82.09938049   -0.1106883672E-17
 82.22617340   -0.1106347865E-17
 82.35296631   -0.1105812783E-17
 82.47975922   -0.1105275633E-17
 82.60655212   -0.1104735173E-17
 82.73334503   -0.1104187787E-17
 82.86013794   -0.1103632438E-17
 82.98693085   -0.1103066233E-17
 83.11372375   -0.1102487620E-17
 83.24051666   -0.1101896290E-17
 83.36730957   -0.1101294309E-17
 83.49410248   -0.1100683746E-17
 83.62089539   -0.1100065842E-17
 83.74768829   -0.1099443699E-17
 83.87448120   -0.1098818764E-17
 84.00127411   -0.1098191658E-17
 84.12806702   -0.1097565068E-17
 84.25485992   -0.1096940340E-17
 84.38165283   -0.1096321092E-17
 84.50843811   -0.1095710943E-17
 84.63523102   -0.1095116304E-17
 84.76202393   -0.1094542034E-17
 84.88881683   -0.1093993923E-17
 85.01560974   -0.1093476005E-17
 85.14240265   -0.1092993758E-17
 85.26919556   -0.1092548838E-17
 85.39598846   -0.1092143417E-17
 85.52278137   -0.1091778940E-17
 85.64957428   -0.1091454168E-17
 85.77636719   -0.1091167033E-17
 85.90316010   -0.1090912675E-17
 86.02995300   -0.1090682616E-17
 86.15674591   -0.1090463930E-17
 86.28353882   -0.1090239247E-17
 86.41033173   -0.1089990369E-17
 86.53712463   -0.1089698064E-17
 86.66391754   -0.1089340618E-17
 86.79071045   -0.1088899731E-17
 86.91750336   -0.1088357514E-17
 87.04429626   -0.1087699389E-17
 87.17108917   -0.1086915015E-17
 87.29788208   -0.1085999222E-17
 87.42467499   -0.1084950151E-17
 87.55146790   -0.1083773176E-17
 87.67826080   -0.1082481120E-17
 87.80505371   -0.1081094765E-17
 87.93184662   -0.1079642753E-17
 88.05863953   -0.1078163754E-17
 88.18543243   -0.1076701816E-17
 88.31221771   -0.1075308120E-17
 88.43901062   -0.1074035089E-17
 88.56580353   -0.1072936800E-17
 88.69259644   -0.1072065468E-17
 88.81938934   -0.1071469485E-17
 88.94618225   -0.1071188967E-17
 89.07297516   -0.1071255969E-17
 89.19976807   -0.1071689205E-17
 89.32656097   -0.1072491156E-17
 89.45335388   -0.1073646831E-17
 89.58014679   -0.1075119419E-17
 89.70693970   -0.1076850501E-17
 89.83373260   -0.1078759634E-17
 89.96052551   -0.1080746625E-17
 90.08731842   -0.1082694326E-17
 90.21411133   -0.1084475039E-17
 90.34090424   -0.1085951866E-17
 90.46769714   -0.1086988530E-17
 90.59449005   -0.1087452062E-17
 90.72128296   -0.1087221278E-17
 90.84807587   -0.1086191955E-17
 90.97486877   -0.1084285821E-17
 91.10166168   -0.1081458001E-17
 91.22845459   -0.1077704152E-17
 91.35524750   -0.1073064289E-17
 91.48204041   -0.1067628265E-17
 91.60883331   -0.1061538147E-17
 91.73562622   -0.1054985016E-17
 91.86241913   -0.1048208132E-17
 91.98921204   -0.1041484704E-17
 92.11599731   -0.1035124720E-17
 92.24279022   -0.1029456051E-17
 92.36958313   -0.1024813086E-17
 92.49637604   -0.1021522562E-17
 92.62316895   -0.1019884124E-17
 92.74996185   -0.1020153061E-17
 92.87675476   -0.1022525208E-17
 93.00354767   -0.1027112545E-17
 93.13034058   -0.1033935234E-17
 93.25713348   -0.1042903423E-17
 93.38392639   -0.1053812694E-17
 93.51071930   -0.1066341275E-17
 93.63751221   -0.1080049933E-17
 93.76430511   -0.1094392934E-17
 93.89109802   -0.1108731490E-17
 94.01789093   -0.1122354948E-17
 94.14468384   -0.1134503956E-17
 94.27147675   -0.1144403550E-17
 94.39826965   -0.1151296963E-17
 94.52506256   -0.1154484297E-17
 94.65185547   -0.1153363674E-17
 94.77864838   -0.1147471770E-17
 94.90544128   -0.1136523104E-17
 95.03223419   -0.1120441162E-17
 95.15902710   -0.1099386934E-17
 95.28582001   -0.1073777319E-17
 95.41261292   -0.1044291432E-17
 95.53940582   -0.1011868537E-17
 95.66619873   -0.9776899507E-18
 95.79299164   -0.9431497835E-18
 95.91977692   -0.9098123368E-18
 96.04656982   -0.8793540991E-18
 96.17336273   -0.8534995351E-18
 96.30015564   -0.8339403325E-18
 96.42694855   -0.8222525807E-18
 96.55374146   -0.8198064008E-18
 96.68053436   -0.8276805398E-18
 96.80732727   -0.8465813066E-18
 96.93412018   -0.8767656442E-18
 97.06091309   -0.9179865356E-18
 97.18770599   -0.9694508182E-18
 97.31449890   -0.1029803156E-17
 97.44129181   -0.1097129971E-17
 97.56808472   -0.1168992321E-17
 97.69487762   -0.1242488559E-17
 97.82167053   -0.1314340879E-17
 97.94846344   -0.1381013912E-17
 98.07525635   -0.1438853172E-17
 98.20204926   -0.1484244604E-17
 98.32884216   -0.1513792840E-17
 98.45563507   -0.1524498625E-17
 98.58242798   -0.1513944318E-17
 98.70922089   -0.1480461184E-17
 98.83601379   -0.1423283875E-17
 98.96280670   -0.1342673987E-17
 99.08959961   -0.1240009706E-17
 99.21639252   -0.1117830993E-17
 99.34318542   -0.9798344165E-18
 99.46997833   -0.8308147272E-18
 99.59677124   -0.6765464735E-18
 99.72355652   -0.5236137029E-18
 99.85034943   -0.3791749658E-18
 99.97714233   -0.2506867523E-18
 100.1039352   -0.1455817974E-18
 100.2307281   -0.7092057225E-19
 100.3575211   -0.3302461404E-19
 100.4843140   -0.3711301561E-19
 100.6111069   -0.8695562999E-19
 100.7378998   -0.1845605770E-18
 100.8646927   -0.3299159984E-18
 100.9914856   -0.5208017542E-18
 101.1182785   -0.7526852436E-18
 101.2450714   -0.1018716868E-17
 101.3718643   -0.1309831815E-17
 101.4986572   -0.1614966748E-17
 101.6254501   -0.1921387741E-17
 101.7522430   -0.2215131157E-17
 101.8790359   -0.2481539977E-17
 102.0058289   -0.2705877356E-17
 102.1326218   -0.2874005331E-17
 102.2594147   -0.2973095364E-17
 102.3862076   -0.2992340135E-17
 102.5130005   -0.2923634100E-17
 102.6397934   -0.2762197188E-17
 102.7665863   -0.2507090552E-17
 102.8933792   -0.2161604714E-17
 103.0201721   -0.1733487255E-17
 103.1469650   -0.1234980551E-17
 103.2737579   -0.6826537031E-18
 103.4005508   -0.9702237927E-19
 103.5273361   0.4980572858E-18
 103.6541290   0.1076196202E-17
 103.7809219   0.1609468686E-17
 103.9077148   0.2069570531E-17
 104.0345078   0.2429092797E-17
 104.1613007   0.2662863964E-17
 104.2880936   0.2749307233E-17
 104.4148865   0.2671747677E-17
 104.5416794   0.2419605242E-17
 104.6684723   0.1989405976E-17
 104.7952652   0.1385555133E-17
 104.9220581   0.6208090793E-18
 105.0488510   -0.2835970377E-18
 105.1756439   -0.1298206205E-17
 105.3024368   -0.2385997721E-17
 105.4292297   -0.3503451520E-17
 105.5560226   -0.4602003208E-17
 105.6828156   -0.5629852460E-17
 105.8096085   -0.6534074194E-17
 105.9364014   -0.7262954317E-17
 106.0631943   -0.7768473340E-17
 106.1899872   -0.8008811494E-17
 106.3167801   -0.7950794701E-17
 106.4435730   -0.7572132096E-17
 106.5703659   -0.6863336745E-17
 106.6971588   -0.5829223254E-17
 106.8239517   -0.4489858196E-17
 106.9507446   -0.2880895745E-17
 107.0775375   -0.1053219295E-17
 107.2043304   0.9281491733E-18
 107.3311157   0.2985866413E-17
 107.4579086   0.5032812933E-17
 107.5847015   0.6975275789E-17
 107.7114944   0.8716704391E-17
 107.8382874   0.1016187577E-16
 107.9650803   0.1122135021E-16
 108.0918732   0.1181599629E-16
 108.2186661   0.1188142462E-16
 108.3454590   0.1137207162E-16
 108.4722519   0.1026476464E-16
 108.5990448   0.8561527789E-17
 108.7258377   0.6291456330E-17
 108.8526306   0.3511515704E-17
 108.9794235   0.3061098696E-18
 109.1062164   -0.3214607701E-17
 109.2330093   -0.6917752408E-17
 109.3598022   -0.1065195961E-16
 109.4865952   -0.1425280503E-16
 109.6133881   -0.1754923723E-16
 109.7401810   -0.2037079000E-16
 109.8669739   -0.2255527970E-16
 109.9937668   -0.2395673045E-16
 110.1205597   -0.2445312319E-16
 110.2473526   -0.2395364838E-16
 110.3741455   -0.2240505543E-16
 110.5009384   -0.1979678621E-16