 -4.500000000   0.9708150665E-17
 -4.373207569   0.9708503871E-17
 -4.246414661   0.9709045675E-17
 -4.119622231   0.9709633800E-17
 -3.992829323   0.9710183048E-17
 -3.866036654   0.9710679356E-17
 -3.739243984   0.9711145059E-17
 -3.612451553   0.9711619034E-17
 -3.485658884   0.9712129404E-17
 -3.358866215   0.9712682788E-17
 -3.232073545   0.9713273395E-17
 -3.105280876   0.9713890472E-17
 -2.978488207   0.9714529055E-17
 -2.851695538   0.9715192454E-17
 -2.724902868   0.9715886458E-17
 -2.598110199   0.9716611896E-17
 -2.471317530   0.9717364630E-17
 -2.344524860   0.9718129772E-17
 -2.217732191   0.9718889951E-17
 -2.090939522   0.9719634414E-17
 -1.964146972   0.9720355715E-17
 -1.837354302   0.9721057992E-17
 -1.710561633   0.9721747860E-17
 -1.583768964   0.9722425321E-17
 -1.456976295   0.9723084584E-17
 -1.330183744   0.9723711587E-17
 -1.203391075   0.9724289786E-17
 -1.076598406   0.9724802638E-17
 -0.9498057365   0.9725245180E-17
 -0.8230130672   0.9725623201E-17
 -0.6962204576   0.9725946629E-17
 -0.5694277883   0.9726229525E-17
 -0.4426351190   0.9726478506E-17
 -0.3158424795   0.9726688610E-17
 -0.1890498251   0.9726850737E-17
 -0.6225717068E-01   0.9726951653E-17
 0.6453548372E-01   0.9726983913E-17
 0.1913281381   0.9726953308E-17
 0.3181207776   0.9726878862E-17
 0.4449134469   0.9726787045E-17
 0.5717061162   0.9726707635E-17
 0.6984987259   0.9726662140E-17
 0.8252913952   0.9726660486E-17
 0.9520840645   0.9726695227E-17
 1.078876734   0.9726757266E-17
 1.205669403   0.9726835021E-17
 1.332461953   0.9726922702E-17
 1.459254622   0.9727031063E-17
 1.586047292   0.9727179955E-17
 1.712839961   0.9727385923E-17
 1.839632630   0.9727667992E-17
 1.966425300   0.9728028643E-17
 2.093217850   0.9728458777E-17
 2.220010519   0.9728941023E-17
 2.346803188   0.9729456356E-17
 2.473595858   0.9729989888E-17
 2.600388527   0.9730539963E-17
 2.727181196   0.9731116508E-17
 2.853973866   0.9731731103E-17
 2.980766535   0.9732394502E-17
 3.107559204   0.9733100914E-17
 3.234351873   0.9733838759E-17
 3.361144543   0.9734581567E-17
 3.487936974   0.9735302042E-17
 3.614729643   0.9735979503E-17
 3.741522312   0.9736599888E-17
 3.868314981   0.9737168161E-17
 3.995107651   0.9737695902E-17
 4.121900558   0.9738196347E-17
 4.248692989   0.9738676111E-17
 4.375485420   0.9739132715E-17
 4.502278328   0.9739553750E-17
 4.629070759   0.9739920191E-17
 4.755863667   0.9740219630E-17
 4.882656097   0.9740446278E-17
 5.009449005   0.9740610060E-17
 5.136241436   0.9740730001E-17
 5.263034344   0.9740825954E-17
 5.389826775   0.9740915289E-17
 5.516619682   0.9741002143E-17
 5.643412113   0.9741081553E-17
 5.770205021   0.9741141110E-17
 5.896997452   0.9741167579E-17
 6.023790359   0.9741156826E-17
 6.150582790   0.9741117121E-17
 6.277375221   0.9741064182E-17
 6.404168129   0.9741020341E-17
 6.530960560   0.9741005452E-17
 6.657753468   0.9741030267E-17
 6.784545898   0.9741092306E-17
 6.911338806   0.9741180814E-17
 7.038131237   0.9741282558E-17
 7.164924145   0.9741387610E-17
 7.291716576   0.9741495143E-17
 7.418509483   0.9741614257E-17
 7.545301914   0.9741760668E-17
 7.672094822   0.9741946784E-17
 7.798887253   0.9742177567E-17
 7.925679684   0.9742448882E-17
 8.052472115   0.9742740877E-17
 8.179265022   0.9743029563E-17
 8.306057930   0.9743295915E-17
 8.432850838   0.9743527526E-17
 8.559642792   0.9743722740E-17
 8.686435699   0.9743892312E-17
 8.813228607   0.9744047822E-17
 8.940021515   0.9744196715E-17
 9.066813469   0.9744340644E-17
 9.193606377   0.9744471339E-17
 9.320399284   0.9744577218E-17
 9.447192192   0.9744644220E-17
 9.573984146   0.9744673171E-17
 9.700777054   0.9744669035E-17
 9.827569962   0.9744651664E-17
 9.954361916   0.9744642565E-17
 10.08115482   0.9744659936E-17
 10.20794773   0.9744715357E-17
 10.33474064   0.9744804693E-17
 10.46153259   0.9744921325E-17
 10.58832550   0.9745049538E-17
 10.71511841   0.9745181887E-17
 10.84191132   0.9745315063E-17
 10.96870327   0.9745459820E-17
 11.09549618   0.9745630219E-17
 11.22228909   0.9745836187E-17
 11.34908199   0.9746085995E-17
 11.47587395   0.9746372200E-17
 11.60266685   0.9746682393E-17
 11.72945976   0.9746996721E-17
 11.85625172   0.9747296161E-17
 11.98304462   0.9747572439E-17
 12.10983753   0.9747826383E-17
 12.23663044   0.9748065439E-17
 12.36342239   0.9748299531E-17
 12.49021530   0.9748534450E-17
 12.61700821   0.9748766888E-17
 12.74380112   0.9748985263E-17
 12.87059307   0.9749174688E-17
 12.99738598   0.9749317790E-17
 13.12417889   0.9749408780E-17
 13.25097084   0.9749449312E-17
 13.37776375   0.9749450139E-17
 13.50455666   0.9749426978E-17
 13.63134956   0.9749393891E-17
 13.75814152   0.9749357495E-17
 13.88493443   0.9749316136E-17
 14.01172733   0.9749261542E-17
 14.13852024   0.9749182960E-17
 14.26531219   0.9749077080E-17
 14.39210510   0.9748944732E-17
 14.51889801   0.9748799148E-17
 14.64569092   0.9748655218E-17
 14.77248287   0.9748530314E-17
 14.89927578   0.9748432707E-17
 15.02606869   0.9748362396E-17
 15.15286064   0.9748311111E-17
 15.27965355   0.9748265616E-17
 15.40644646   0.9748215985E-17
 15.53323936   0.9748158083E-17
 15.66003132   0.9748096871E-17
 15.78682423   0.9748045586E-17
 15.91361713   0.9748015808E-17
 16.04040909   0.9748014153E-17
 16.16720200   0.9748043105E-17
 16.29399490   0.9748093563E-17
 16.42078781   0.9748153120E-17
 16.54758072   0.9748205232E-17
 16.67437363   0.9748243282E-17
 16.80116463   0.9748265616E-17
 16.92795753   0.9748278851E-17
 17.05475044   0.9748292913E-17
 17.18154335   0.9748317729E-17
 17.30833626   0.9748356606E-17
 17.43512917   0.9748405410E-17
 17.56192207   0.9748453386E-17
 17.68871498   0.9748491437E-17
 17.81550598   0.9748513770E-17
 17.94229889   0.9748524524E-17
 18.06909180   0.9748533623E-17
 18.19588470   0.9748556784E-17
 18.32267761   0.9748608069E-17
 18.44947052   0.9748694096E-17
 18.57626343   0.9748814037E-17
 18.70305443   0.9748956312E-17
 18.82984734   0.9749109341E-17
 18.95664024   0.9749260715E-17
 19.08343315   0.9749402162E-17
 19.21022606   0.9749536993E-17
 19.33701897   0.9749670169E-17
 19.46381187   0.9749810790E-17
 19.59060478   0.9749963818E-17
 19.71739578   0.9750126773E-17
 19.84418869   0.9750293036E-17
 19.97098160   0.9750449373E-17
 20.09777451   0.9750583376E-17
 20.22456741   0.9750690083E-17
 20.35136032   0.9750769492E-17
 20.47815323   0.9750829049E-17
 20.60494423   0.9750878680E-17
 20.73173714   0.9750928311E-17
 20.85853004   0.9750979596E-17
 20.98532295   0.9751029227E-17
 21.11211586   0.9751068931E-17
 21.23890877   0.9751088784E-17
 21.36570168   0.9751084648E-17
 21.49249458   0.9751057351E-17
 21.61928558   0.9751019301E-17
 21.74607849   0.9750983732E-17
 21.87287140   0.9750963879E-17
 21.99966431   0.9750969670E-17
 22.12645721   0.9751001930E-17
 22.25325012   0.9751055697E-17
 22.38004303   0.9751121044E-17
 22.50683403   0.9751190527E-17
 22.63362694   0.9751260010E-17
 22.76041985   0.9751332802E-17
 22.88721275   0.9751418002E-17
 23.01400566   0.9751523881E-17
 23.14079857   0.9751655402E-17
 23.26759148   0.9751810085E-17
 23.39438438   0.9751979657E-17
 23.52117538   0.9752150884E-17
 23.64796829   0.9752311357E-17
 23.77476120   0.9752452805E-17
 23.90155411   0.9752574400E-17
 24.02834702   0.9752681934E-17
 24.15513992   0.9752784504E-17
 24.28193283   0.9752890383E-17
 24.40872383   0.9753005361E-17
 24.53551674   0.9753123648E-17
 24.66230965   0.9753236972E-17
 24.78910255   0.9753337888E-17
 24.91589546   0.9753421433E-17
 25.04268837   0.9753487608E-17
 25.16948128   0.9753546337E-17
 25.29627419   0.9753609203E-17
 25.42306519   0.9753688612E-17
 25.54985809   0.9753791183E-17
 25.67665100   0.9753917741E-17
 25.80344391   0.9754060844E-17
 25.93023682   0.9754212218E-17
 26.05702972   0.9754364419E-17
 26.18382263   0.9754512484E-17
 26.31061363   0.9754660550E-17
 26.43740654   0.9754817714E-17
 26.56419945   0.9754989767E-17
 26.69099236   0.9755183328E-17
 26.81778526   0.9755399222E-17
 26.94457817   0.9755629178E-17
 27.07137108   0.9755862443E-17
 27.19816399   0.9756089918E-17
 27.32495499   0.9756302503E-17
 27.45174789   0.9756501854E-17
 27.57854080   0.9756692105E-17
 27.70533371   0.9756883184E-17
 27.83212662   0.9757080880E-17
 27.95891953   0.9757286848E-17
 28.08571243   0.9757496125E-17
 28.21250343   0.9757697957E-17
 28.33929634   0.9757880764E-17
 28.46608925   0.9758037101E-17
 28.59288216   0.9758166968E-17
 28.71967506   0.9758276156E-17
 28.84646797   0.9758373763E-17
 28.97326088   0.9758471371E-17
 29.10005379   0.9758577250E-17
 29.22684479   0.9758695537E-17
 29.35363770   0.9758821268E-17
 29.48043060   0.9758950308E-17
 29.60722351   0.9759077694E-17
 29.73401642   0.9759203426E-17
 29.86080933   0.9759329984E-17
 29.98760223   0.9759464815E-17
 30.11439323   0.9759617016E-17
 30.24118614   0.9759789897E-17
 30.36797905   0.9759982630E-17
 30.49477196   0.9760189425E-17
 30.62156487   0.9760400356E-17
 30.74835777   0.9760607151E-17
 30.87515068   0.9760804020E-17
 31.00194168   0.9760995926E-17
 31.12873459   0.9761187005E-17
 31.25552750   0.9761388837E-17
 31.38232040   0.9761608867E-17
 31.50911331   0.9761852885E-17
 31.63590622   0.9762115928E-17
 31.76269913   0.9762395516E-17
 31.88949203   0.9762680066E-17
 32.01628494   0.9762962961E-17
 32.14307785   0.9763242548E-17
 32.26987076   0.9763518827E-17
 32.39666367   0.9763799241E-17
 32.52345276   0.9764087100E-17
 32.65024567   0.9764387366E-17
 32.77703857   0.9764695905E-17
 32.90383148   0.9765009406E-17
 33.03062439   0.9765321253E-17
 33.15741730   0.9765626483E-17
 33.28421021   0.9765924268E-17
 33.41100311   0.9766217090E-17
 33.53779602   0.9766511566E-17
 33.66458893   0.9766815142E-17
 33.79138184   0.9767130297E-17
 33.91817474   0.9767456207E-17
 34.04496765   0.9767786252E-17
 34.17176056   0.9768111334E-17
 34.29855347   0.9768420699E-17
 34.42534256   0.9768711039E-17
 34.55213547   0.9768981528E-17
 34.67892838   0.9769239608E-17
 34.80572128   0.9769493552E-17
 34.93251419   0.9769750806E-17
 35.05930710   0.9770015503E-17
 35.18610001   0.9770287646E-17
 35.31289291   0.9770561443E-17
 35.43968582   0.9770831103E-17
 35.56647873   0.9771094147E-17
 35.69327164   0.9771349746E-17
 35.82006454   0.9771603690E-17
 35.94685745   0.9771862598E-17
 36.07365036   0.9772134740E-17
 36.20044327   0.9772425080E-17
 36.32723236   0.9772731964E-17
 36.45402527   0.9773052083E-17
 36.58081818   0.9773380474E-17
 36.70761108   0.9773710519E-17
 36.83440399   0.9774042219E-17
 36.96119690   0.9774374745E-17
 37.08798981   0.9774711408E-17
 37.21478271   0.9775056342E-17
 37.34157562   0.9775411202E-17
 37.46836853   0.9775771853E-17
 37.59516144   0.9776130850E-17
 37.72195435   0.9776479093E-17
 37.84874725   0.9776806656E-17
 37.97554016   0.9777107750E-17
 38.10232925   0.9777381547E-17
 38.22912216   0.9777633010E-17
 38.35591507   0.9777867102E-17
 38.48270798   0.9778092095E-17
 38.60950089   0.9778310471E-17
 38.73629379   0.9778523056E-17
 38.86308670   0.9778728197E-17
 38.98987961   0.9778921757E-17
 39.11667252   0.9779102082E-17
 39.24346542   0.9779270000E-17
 39.37025833   0.9779430473E-17
 39.49705124   0.9779591773E-17
 39.62384415   0.9779763000E-17
 39.75063705   0.9779949115E-17
 39.87742996   0.9780154256E-17
 40.00421906   0.9780375113E-17
 40.13101196   0.9780606724E-17
 40.25780487   0.9780844952E-17
 40.38459778   0.9781084834E-17
 40.51139069   0.9781328025E-17
 40.63818359   0.9781579488E-17
 40.76497650   0.9781842532E-17
 40.89176941   0.9782119637E-17
 41.01856232   0.9782409978E-17
 41.14535522   0.9782709417E-17
 41.27214813   0.9783012992E-17
 41.39894104   0.9783314913E-17
 41.52573395   0.9783610217E-17
 41.65252686   0.9783900557E-17
 41.77931976   0.9784190897E-17
 41.90610886   0.9784487855E-17
 42.03290176   0.9784795567E-17
 42.15969467   0.9785118167E-17
 42.28648758   0.9785451521E-17
 42.41328049   0.9785790665E-17
 42.54007339   0.9786130636E-17
 42.66686630   0.9786463163E-17
 42.79365921   0.9786789072E-17
 42.92045212   0.9787110845E-17
 43.04724503   0.9787433445E-17
 43.17403793   0.9787761836E-17
 43.30083084   0.9788098499E-17
 43.42762375   0.9788443433E-17
 43.55441666   0.9788791676E-17
 43.68120956   0.9789135783E-17
 43.80799866   0.9789470791E-17
 43.93479156   0.9789793392E-17
 44.06158447   0.9790106893E-17
 44.18837738   0.9790415432E-17
 44.31517029   0.9790726451E-17
 44.44196320   0.9791044916E-17
 44.56875610   0.9791372480E-17
 44.69554901   0.9791707488E-17
 44.82234192   0.9792043323E-17
 44.94913483   0.9792375850E-17
 45.07592773   0.9792700104E-17
 45.20272064   0.9793018569E-17
 45.32951355   0.9793335379E-17
 45.45630646   0.9793657980E-17
 45.58309937   0.9793992161E-17
 45.70988846   0.9794338749E-17
 45.83668137   0.9794694437E-17
 45.96347427   0.9795052606E-17
 46.09026718   0.9795408294E-17
 46.21706009   0.9795758191E-17
 46.34385300   0.9796101471E-17
 46.47064590   0.9796441442E-17
 46.59743881   0.9796784722E-17
 46.72423172   0.9797137101E-17
 46.85102463   0.9797499406E-17
 46.97781754   0.9797870810E-17
 47.10461044   0.9798243042E-17
 47.23140335   0.9798608656E-17
 47.35819626   0.9798963516E-17
 47.48498917   0.9799302660E-17
 47.61177826   0.9799628569E-17
 47.73857117   0.9799946207E-17
 47.86536407   0.9800264671E-17
 47.99215698   0.9800587272E-17
 48.11894989   0.9800918144E-17
 48.24574280   0.9801254806E-17
 48.37253571   0.9801593950E-17
 48.49932861   0.9801932267E-17
 48.62612152   0.9802267275E-17
 48.75291443   0.9802599802E-17
 48.87970734   0.9802935637E-17
 49.00650024   0.9803280572E-17
 49.13329315   0.9803636259E-17
 49.26008606   0.9804001873E-17
 49.38687897   0.9804373277E-17
 49.51366806   0.9804741373E-17
 49.64046097   0.9805100369E-17
 49.76725388   0.9805441167E-17
 49.89404678   0.9805763768E-17
 50.02083969   0.9806070652E-17
 50.14763260   0.9806367610E-17
 50.27442551   0.9806661259E-17
 50.40121841   0.9806954908E-17
 50.52801132   0.9807248557E-17
 50.65480423   0.9807539725E-17
 50.78159714   0.9807826756E-17
 50.90839005   0.9808106343E-17
 51.03518295   0.9808380140E-17
 51.16197586   0.9808651455E-17
 51.28876877   0.9808927734E-17
 51.41555786   0.9809213938E-17
 51.54235077   0.9809513378E-17
 51.66914368   0.9809824397E-17
 51.79593658   0.9810142862E-17
 51.92272949   0.9810462154E-17
 52.04952240   0.9810776482E-17
 52.17631531   0.9811083366E-17
 52.30310822   0.9811386114E-17
 52.42990112   0.9811687208E-17
 52.55669403   0.9811992438E-17
 52.68348694   0.9812310075E-17
 52.81027985   0.9812637639E-17
 52.93707275   0.9812975956E-17
 53.06386566   0.9813320890E-17
 53.19065857   0.9813669133E-17
 53.31744766   0.9814016549E-17
 53.44424057   0.9814363965E-17
 53.57103348   0.9814716344E-17
 53.69782639   0.9815075340E-17
 53.82461929   0.9815445917E-17
 53.95141220   0.9815825593E-17
 54.07820511   0.9816212713E-17
 54.20499802   0.9816602315E-17
 54.33179092   0.9816989436E-17
 54.45858383   0.9817368285E-17
 54.58537674   0.9817739689E-17
 54.71216965   0.9818105303E-17
 54.83896255   0.9818469262E-17
 54.96575546   0.9818835703E-17
 55.09254837   0.9819207107E-17
 55.21933746   0.9819580993E-17
 55.34613037   0.9819956533E-17
 55.47292328   0.9820332073E-17
 55.59971619   0.9820703477E-17
 55.72650909   0.9821072399E-17
 55.85330200   0.9821442149E-17
 55.98009491   0.9821817689E-17
 56.10688782   0.9822203155E-17
 56.23368073   0.9822601856E-17
 56.36047363   0.9823011311E-17
 56.48726654   0.9823430691E-17
 56.61405945   0.9823854208E-17
 56.74085236   0.9824274416E-17
 56.86764526   0.9824689660E-17
 56.99443817   0.9825097460E-17
 57.12122726   0.9825500297E-17
 57.24802017   0.9825898998E-17
 57.37481308   0.9826295218E-17
 57.50160599   0.9826688129E-17
 57.62839890   0.9827074422E-17
 57.75519180   0.9827452444E-17
 57.88198471   0.9827818057E-17
 58.00877762   0.9828170436E-17
 58.13557053   0.9828511235E-17
 58.26236343   0.9828841280E-17
 58.38915634   0.9829167189E-17
 58.51594925   0.9829492271E-17
 58.64274216   0.9829819007E-17
 58.76953506   0.9830146571E-17
 58.89632797   0.9830474134E-17
 59.02311707   0.9830800043E-17
 59.14990997   0.9831122644E-17
 59.27670288   0.9831444417E-17
 59.40349579   0.9831765363E-17
 59.53028870   0.9832089618E-17
 59.65708160   0.9832419663E-17
 59.78387451   0.9832759634E-17
 59.91066742   0.9833107050E-17
 60.03746033   0.9833460256E-17
 60.16425323   0.9833814290E-17
 60.29104614   0.9834165841E-17
 60.41783905   0.9834510776E-17
 60.54463196   0.9834849920E-17
 60.67142487   0.9835182446E-17
 60.79821777   0.9835510837E-17
 60.92500687   0.9835835919E-17
 61.05179977   0.9836160174E-17
 61.17859268   0.9836483601E-17
 61.30538559   0.9836804548E-17
 61.43217850   0.9837121358E-17
 61.55897141   0.9837434859E-17
 61.68576431   0.9837749188E-17
 61.81255722   0.9838069307E-17
 61.93935013   0.9838397697E-17
 62.06614304   0.9838738496E-17
 62.19293594   0.9839094183E-17
 62.31972885   0.9839464760E-17
 62.44652176   0.9839844436E-17
 62.57331467   0.9840234038E-17
 62.70010757   0.9840627776E-17
 62.82689667   0.9841026477E-17
 62.95368958   0.9841429314E-17
 63.08048248   0.9841837942E-17
 63.20727539   0.9842253186E-17
 63.33406830   0.9842678357E-17
 63.46086121   0.9843110145E-17
 63.58765411   0.9843546897E-17
 63.71444702   0.9843985302E-17
 63.84123993   0.9844420399E-17
 63.96803284   0.9844851361E-17
 64.09482574   0.9845275704E-17
 64.22161865   0.9845692603E-17
 64.34841156   0.9846103712E-17
 64.47520447   0.9846509858E-17
 64.60199738   0.9846910213E-17
 64.72879028   0.9847303951E-17
 64.85558319   0.9847691899E-17
 64.98237610   0.9848072402E-17
 65.10916901   0.9848445460E-17
 65.23596191   0.9848815210E-17
 65.36275482   0.9849182478E-17
 65.48954773   0.9849548092E-17
 65.61633301   0.9849917015E-17
 65.74312592   0.9850285937E-17
 65.86991882   0.9850658168E-17
 65.99671173   0.9851031227E-17
 66.12350464   0.9851404285E-17
 66.25029755   0.9851775689E-17
 66.37709045   0.9852145439E-17
 66.50388336   0.9852512707E-17
 66.63067627   0.9852879148E-17
 66.75746918   0.9853242281E-17
 66.88426208   0.9853604586E-17
 67.01105499   0.9853964409E-17
 67.13784790   0.9854321751E-17
 67.26464081   0.9854677439E-17
 67.39143372   0.9855029818E-17
 67.51822662   0.9855380543E-17
 67.64501953   0.9855729613E-17
 67.77181244   0.9856077029E-17
 67.89860535   0.9856424444E-17
 68.02539825   0.9856774342E-17
 68.15219116   0.9857127548E-17
 68.27898407   0.9857484890E-17
 68.40577698   0.9857848022E-17
 68.53256989   0.9858215290E-17
 68.65936279   0.9858589176E-17
 68.78615570   0.9858966370E-17
 68.91294861   0.9859346046E-17
 69.03974152   0.9859728204E-17
 69.16653442   0.9860111188E-17
 69.29332733   0.9860496655E-17
 69.42011261   0.9860884602E-17
 69.54690552   0.9861277513E-17
 69.67369843   0.9861676214E-17
 69.80049133   0.9862079878E-17
 69.92728424   0.9862487678E-17
 70.05407715   0.9862895478E-17
 70.18087006   0.9863301624E-17
 70.30766296   0.9863702807E-17
 70.43445587   0.9864099853E-17
 70.56124878   0.9864490283E-17
 70.68804169   0.9864877403E-17
 70.81483459   0.9865260388E-17
 70.94162750   0.9865638409E-17
 71.06842041   0.9866009813E-17
 71.19521332   0.9866375427E-17
 71.32200623   0.9866731942E-17
 71.44879913   0.9867080185E-17
 71.57559204   0.9867423465E-17
 71.70238495   0.9867765091E-17
 71.82917786   0.9868108371E-17
 71.95597076   0.9868456614E-17
 72.08276367   0.9868810647E-17
 72.20955658   0.9869172952E-17
 72.33634949   0.9869541047E-17
 72.46314240   0.9869912452E-17
 72.58993530   0.9870284683E-17
 72.71672821   0.9870657741E-17
 72.84352112   0.9871031627E-17
 72.97031403   0.9871408821E-17
 73.09710693   0.9871788497E-17
 73.22389221   0.9872173136E-17
 73.35068512   0.9872562738E-17
 73.47747803   0.9872956476E-17
 73.60427094   0.9873351869E-17
 73.73106384   0.9873748915E-17
 73.85785675   0.9874147616E-17
 73.98464966   0.9874549626E-17
 74.11144257   0.9874956599E-17
 74.23823547   0.9875371016E-17
 74.36502838   0.9875794533E-17
 74.49182129   0.9876224667E-17
 74.61861420   0.9876658937E-17
 74.74540710   0.9877090725E-17
 74.87220001   0.9877515069E-17
 74.99899292   0.9877930313E-17
 75.12578583   0.9878333977E-17
 75.25257874   0.9878726888E-17
 75.37937164   0.9879109046E-17
 75.50616455   0.9879484586E-17
 75.63295746   0.9879852681E-17
 75.75975037   0.9880214159E-17
 75.88654327   0.9880568192E-17
 76.01333618   0.9880915608E-17
 76.14012909   0.9881256406E-17
 76.26692200   0.9881594723E-17
 76.39371490   0.9881932213E-17
 76.52050781   0.9882274666E-17
 76.64730072   0.9882624563E-17
 76.77409363   0.9882981078E-17
 76.90088654   0.9883344210E-17
 77.02767181   0.9883712306E-17
 77.15446472   0.9884082055E-17
 77.28125763   0.9884451805E-17
 77.40805054   0.9884820728E-17
 77.53484344   0.9885191305E-17
 77.66163635   0.9885567672E-17
 77.78842926   0.9885953138E-17
 77.91522217   0.9886347703E-17
 78.04201508   0.9886752194E-17
 78.16880798   0.9887164130E-17
 78.29560089   0.9887578548E-17
 78.42239380   0.9887992138E-17
 78.54918671   0.9888403247E-17
 78.67597961   0.9888813529E-17
 78.80277252   0.9889225464E-17
 78.92956543   0.9889639055E-17
 79.05635834   0.9890059263E-17
 79.18315125   0.9890481125E-17
 79.30994415   0.9890904641E-17
 79.43673706   0.9891324022E-17
 79.56352997   0.9891736785E-17
 79.69032288   0.9892141276E-17
 79.81711578   0.9892535014E-17
 79.94390869   0.9892922962E-17
 80.07070160   0.9893306774E-17
 80.19749451   0.9893686450E-17
 80.32428741   0.9894063644E-17
 80.45108032   0.9894435048E-17
 80.57787323   0.9894799835E-17
 80.70465851   0.9895154695E-17
 80.83145142   0.9895500457E-17
 80.95824432   0.9895837946E-17
 81.08503723   0.9896172127E-17
 81.21183014   0.9896508790E-17
 81.33862305   0.9896853724E-17
 81.46541595   0.9897209412E-17
 81.59220886   0.9897579989E-17
 81.71900177   0.9897962973E-17
 81.84579468   0.9898357538E-17
 81.97258759   0.9898762857E-17
 82.09938049   0.9899178102E-17
 82.22617340   0.9899604100E-17
 82.35296631   0.9900043333E-17
 82.47975922   0.9900493319E-17
 82.60655212   0.9900953231E-17
 82.73334503   0.9901419761E-17
 82.86013794   0.9901883809E-17
 82.98693085   0.9902337932E-17
 83.11372375   0.9902774683E-17
 83.24051666   0.9903189928E-17
 83.36730957   0.9903580357E-17
 83.49410248   0.9903946798E-17
 83.62089539   0.9904285942E-17
 83.74768829   0.9904598616E-17
 83.87448120   0.9904880685E-17
 84.00127411   0.9905129666E-17
 84.12806702   0.9905341424E-17
 84.25485992   0.9905515959E-17
 84.38165283   0.9905658235E-17
 84.50843811   0.9905774040E-17
 84.63523102   0.9905879092E-17
 84.76202393   0.9905990761E-17
 84.88881683   0.9906127246E-17
 85.01560974   0.9906307571E-17
 85.14240265   0.9906545799E-17
 85.26919556   0.9906858474E-17
 85.39598846   0.9907256347E-17
 85.52278137   0.9907752656E-17
 85.64957428   0.9908359806E-17
 85.77636719   0.9909086071E-17
 85.90316010   0.9909935585E-17
 86.02995300   0.9910904214E-17
 86.15674591   0.9911977894E-17
 86.28353882   0.9913133466E-17
 86.41033173   0.9914338668E-17
 86.53712463   0.9915551315E-17
 86.66391754   0.9916728393E-17
 86.79071045   0.9917821925E-17
 86.91750336   0.9918784764E-17
 87.04429626   0.9919573894E-17
 87.17108917   0.9920146303E-17
 87.29788208   0.9920463113E-17
 87.42467499   0.9920489583E-17
 87.55146790   0.9920201724E-17
 87.67826080   0.9919583820E-17
 87.80505371   0.9918642489E-17
 87.93184662   0.9917400063E-17
 88.05863953   0.9915899558E-17
 88.18543243   0.9914208801E-17
 88.31221771   0.9912413819E-17
 88.43901062   0.9910615528E-17
 88.56580353   0.9908925598E-17
 88.69259644   0.9907461488E-17
 88.81938934   0.9906343967E-17
 88.94618225   0.9905692976E-17
 89.07297516   0.9905621011E-17
 89.19976807   0.9906233952E-17
 89.32656097   0.9907612035E-17
 89.45335388   0.9909813163E-17
 89.58014679   0.9912854706E-17
 89.70693970   0.9916713503E-17
 89.83373260   0.9921316764E-17
 89.96052551   0.9926545372E-17
 90.08731842   0.9932233893E-17
 90.21411133   0.9938173877E-17
 90.34090424   0.9944125442E-17
 90.46769714   0.9949818099E-17
 90.59449005   0.9954960681E-17
 90.72128296   0.9959255402E-17
 90.84807587   0.9962406133E-17
 90.97486877   0.9964132459E-17
 91.10166168   0.9964187053E-17
 91.22845459   0.9962374700E-17
 91.35524750   0.9958572978E-17
 91.48204041   0.9952740528E-17
 91.60883331   0.9944940215E-17
 91.73562622   0.9935338302E-17
 91.86241913   0.9924207760E-17
 91.98921204   0.9911927436E-17
 92.11599731   0.9898974615E-17
 92.24279022   0.9885910125E-17
 92.36958313   0.9873368412E-17
 92.49637604   0.9862030247E-17
 92.62316895   0.9852601216E-17
 92.74996185   0.9845776976E-17
 92.87675476   0.9842214309E-17
 93.00354767   0.9842482315E-17
 93.13034058   0.9847031809E-17
 93.25713348   0.9856149821E-17
 93.38392639   0.9869936440E-17
 93.51071930   0.9888271725E-17
 93.63751221   0.9910806607E-17
 93.76430511   0.9936954613E-17
 93.89109802   0.9965891872E-17
 94.01789093   0.9996576137E-17
 94.14468384   0.1002776416E-16
 94.27147675   0.1005805385E-16
 94.39826965   0.1008592901E-16
 94.52506256   0.1010982130E-16
 94.65185547   0.1012817892E-16
 94.77864838   0.1013954355E-16
 94.90544128   0.1014263638E-16
 95.03223419   0.1013643584E-16
 95.15902710   0.1012025701E-16
 95.28582001   0.1009381453E-16
 95.41261292   0.1005728210E-16
 95.53940582   0.1001132394E-16
 95.66619873   0.9957114659E-17
 95.79299164   0.9896338391E-17
 95.91977692   0.9831162349E-17
 96.04656982   0.9764186362E-17
 96.17336273   0.9698364291E-17
 96.30015564   0.9636904772E-17
 96.42694855   0.9583142168E-17
 96.55374146   0.9540389338E-17
 96.68053436   0.9511780469E-17
 96.80732727   0.9500100679E-17
 96.93412018   0.9507623060E-17
 97.06091309   0.9535952341E-17
 97.18770599   0.9585885099E-17
 97.31449890   0.9657293120E-17
 97.44129181   0.9749044820E-17
 97.56808472   0.9858953963E-17
 97.69487762   0.9983782962E-17
 97.82167053   0.1011928342E-16
 97.94846344   0.1026029538E-16
 98.07525635   0.1040090119E-16
 98.20204926   0.1053462652E-16
 98.32884216   0.1065468848E-16
 98.45563507   0.1075428516E-16
 98.58242798   0.1082690996E-16
 98.70922089   0.1086667502E-16
 98.83601379   0.1086864619E-16
 98.96280670   0.1082915410E-16
 99.08959961   0.1074607787E-16
 99.21639252   0.1061908828E-16
 99.34318542   0.1044982479E-16
 99.46997833   0.1024200724E-16
 99.59677124   0.1000145898E-16
 99.72355652   0.9736030788E-17
 99.85034943   0.9455426309E-17
 99.97714233   0.9170931599E-17
 100.1039352   0.8895032123E-17
 100.2307281   0.8640960289E-17
 100.3575211   0.8422149511E-17
 100.4843140   0.8251645252E-17
 100.6111069   0.8141483820E-17
 100.7378998   0.8102056256E-17
 100.8646927   0.8141500364E-17
 100.9914856   0.8265136568E-17
 101.1182785   0.8474979882E-17
 101.2450714   0.8769360227E-17
 101.3718643   0.9142683381E-17
 101.4986572   0.9585334197E-17
 101.6254501   0.1008377504E-16
 101.7522430   0.1062081212E-16
 101.8790359   0.1117605711E-16
 102.0058289   0.1172657476E-16
 102.1326218   0.1224768614E-16
 102.2594147   0.1271392897E-16
 102.3862076   0.1310012140E-16
 102.5130005   0.1338249274E-16
 102.6397934   0.1353986219E-16
 102.7665863   0.1355477791E-16
 102.8933792   0.1341459727E-16
 103.0201721   0.1311243398E-16
 103.1469650   0.1264793154E-16
 103.2737579   0.1202779920E-16
 103.4005508   0.1126608579E-16
 103.5273361   0.1038414913E-16
 103.6541290   0.9410290371E-17
 103.7809219   0.8379066636E-17
 103.9077148   0.7330271929E-17
 104.0345078   0.6307614062E-17
 104.1613007   0.5357119846E-17
 104.2880936   0.4525326047E-17
 104.4148865   0.3857304497E-17
 104.5416794   0.3394603030E-17
 104.6684723   0.3173196765E-17
 104.7952652   0.3221515900E-17
 104.9220581   0.3558660449E-17
 105.0488510   0.4192889603E-17
 105.1756439   0.5120467608E-17
 105.3024368   0.6324951768E-17
 105.4292297   0.7776961868E-17
 105.5560226   0.9434500294E-17
 105.6828156   0.1124382223E-16
 105.8096085   0.1314087080E-16
 105.9364014   0.1505323793E-16
 106.0631943   0.1690263014E-16
 106.1899872   0.1860772897E-16
 106.3167801   0.2008738634E-16
 106.4435730   0.2126402760E-16
 106.5703659   0.2206712403E-16
 106.6971588   0.2243659417E-16
 106.8239517   0.2232600509E-16
 106.9507446   0.2170538967E-16
 107.0775375   0.2056357437E-16
 107.2043304   0.1890986496E-16
 107.3311157   0.1677499452E-16
 107.4579086   0.1421124417E-16
 107.5847015   0.1129170937E-16
 107.7114944   0.8108633169E-17
 107.8382874   0.4770906044E-17
 107.9650803   0.1400702154E-17
 108.0918732   -0.1870605883E-17
 108.2186661   -0.4907138555E-17
 108.3454590   -0.7573645009E-17
 108.4722519   -0.9740925216E-17
 108.5990448   -0.1129128006E-16
 108.7258377   -0.1212382742E-16
 108.8526306   -0.1215942100E-16
 108.9794235   -0.1134498890E-16
 109.1062164   -0.9657057373E-17
 109.2330093   -0.7104299421E-17
 109.3598022   -0.3728991413E-17
 109.4865952   0.3927851371E-18
 109.6133881   0.5152234652E-17
 109.7401810   0.1041022683E-16
 109.8669739   0.1600097350E-16
 109.9937668   0.2173686059E-16
 110.1205597   0.2741436196E-16
 110.2473526   0.3282076647E-16
 110.3741455   0.3774159114E-16
 110.5009384   0.4196832194E-16
 110.6277313   0.4530631997E-16
 110.7545242   0.4758250925E-16
 110.8813171   0.4865257656E-16
 111.0081024   0.4840745648E-16
 111.1348953   0.4677879410E-16
 111.2616882   0.4374317360E-16
 111.3884811   0.3932491740E-16
 111.5152740   0.3359733686E-16
 111.6420670   0.2668236006E-16
 111.7688599   0.1874846714E-16
 111.8956528   0.1000701516E-16
 112.0224457   0.7070114321E-18
 112.1492386   -0.8871490563E-17
 112.2760315   -0.1842520826E-16
 112.4028244   -0.2763640040E-16
 112.5296173   -0.3618236561E-16
 112.6564102   -0.4374535736E-16
 112.7832031   -0.5002259942E-16
 112.9099960   -0.5473614255E-16
 113.0367889   -0.5764228613E-16
 113.1635818   -0.5854024693E-16
 113.2903748   -0.5727984867E-16
 113.4171677   -0.5376807323E-16
 113.5439606   -0.4797423221E-16
 113.6707535   -0.3993362307E-16
 113.7975464   -0.2974965992E-16