 -4.500000000   0.7850519938E-18
 -4.373207569   0.7850618165E-18
 -4.246414661   0.7850810485E-18
 -4.119622231   0.7851077251E-18
 -3.992829323   0.7851390028E-18
 -3.866036654   0.7851725036E-18
 -3.739243984   0.7852046603E-18
 -3.612451553   0.7852330429E-18
 -3.485658884   0.7852552217E-18
 -3.358866215   0.7852713000E-18
 -3.232073545   0.7852809160E-18
 -3.105280876   0.7852855172E-18
 -2.978488207   0.7852871199E-18
 -2.851695538   0.7852879987E-18
 -2.724902868   0.7852906354E-18
 -2.598110199   0.7852978215E-18
 -2.471317530   0.7853111598E-18
 -2.344524860   0.7853317876E-18
 -2.217732191   0.7853598600E-18
 -2.090939522   0.7853939812E-18
 -1.964146972   0.7854330655E-18
 -1.837354302   0.7854742695E-18
 -1.710561633   0.7855149564E-18
 -1.583768964   0.7855528516E-18
 -1.456976295   0.7855852151E-18
 -1.330183744   0.7856107026E-18
 -1.203391075   0.7856285386E-18
 -1.076598406   0.7856397056E-18
 -0.9498057365   0.7856448238E-18
 -0.8230130672   0.7856457543E-18
 -0.6962204576   0.7856448238E-18
 -0.5694277883   0.7856441517E-18
 -0.4426351190   0.7856467883E-18
 -0.3158424795   0.7856542329E-18
 -0.1890498251   0.7856680882E-18
 -0.6225717068E-01   0.7856885092E-18
 0.6453548372E-01   0.7857159613E-18
 0.1913281381   0.7857491002E-18
 0.3181207776   0.7857860649E-18
 0.4449134469   0.7858243220E-18
 0.5717061162   0.7858627859E-18
 0.6984987259   0.7858985614E-18
 0.8252913952   0.7859296324E-18
 0.9520840645   0.7859548614E-18
 1.078876734   0.7859740934E-18
 1.205669403   0.7859870697E-18
 1.332461953   0.7859949280E-18
 1.459254622   0.7859996326E-18
 1.586047292   0.7860037685E-18
 1.712839961   0.7860099206E-18
 1.839632630   0.7860208808E-18
 1.966425300   0.7860380448E-18
 2.093217850   0.7860623432E-18
 2.220010519   0.7860949134E-18
 2.346803188   0.7861350317E-18
 2.473595858   0.7861809919E-18
 2.600388527   0.7862302091E-18
 2.727181196   0.7862796332E-18
 2.853973866   0.7863274029E-18
 2.980766535   0.7863702095E-18
 3.107559204   0.7864058816E-18
 3.234351873   0.7864339024E-18
 3.361144543   0.7864543751E-18
 3.487936974   0.7864676100E-18
 3.614729643   0.7864752614E-18
 3.741522312   0.7864796558E-18
 3.868314981   0.7864834298E-18
 3.995107651   0.7864894786E-18
 4.121900558   0.7864996115E-18
 4.248692989   0.7865166204E-18
 4.375485420   0.7865397298E-18
 4.502278328   0.7865698702E-18
 4.629070759   0.7866058008E-18
 4.755863667   0.7866452987E-18
 4.882656097   0.7866864510E-18
 5.009449005   0.7867259488E-18
 5.136241436   0.7867621897E-18
 5.263034344   0.7867921233E-18
 5.389826775   0.7868149224E-18
 5.516619682   0.7868305872E-18
 5.643412113   0.7868387556E-18
 5.770205021   0.7868420126E-18
 5.896997452   0.7868426330E-18
 6.023790359   0.7868420126E-18
 6.150582790   0.7868431500E-18
 6.277375221   0.7868486301E-18
 6.404168129   0.7868607793E-18
 6.530960560   0.7868800112E-18
 6.657753468   0.7869063259E-18
 6.784545898   0.7869388444E-18
 6.911338806   0.7869748785E-18
 7.038131237   0.7870134458E-18
 7.164924145   0.7870507723E-18
 7.291716576   0.7870845833E-18
 7.418509483   0.7871128109E-18
 7.545301914   0.7871334904E-18
 7.672094822   0.7871457430E-18
 7.798887253   0.7871506027E-18
 7.925679684   0.7871486381E-18
 8.052472115   0.7871427962E-18
 8.179265022   0.7871348345E-18
 8.306057930   0.7871284756E-18
 8.432850838   0.7871252703E-18
 8.559642792   0.7871277001E-18
 8.686435699   0.7871371093E-18
 8.813228607   0.7871534978E-18
 8.940021515   0.7871768657E-18
 9.066813469   0.7872055068E-18
 9.193606377   0.7872380770E-18
 9.320399284   0.7872711643E-18
 9.447192192   0.7873031658E-18
 9.573984146   0.7873314450E-18
 9.700777054   0.7873541925E-18
 9.827569962   0.7873709946E-18
 9.954361916   0.7873805589E-18
 10.08115482   0.7873844363E-18
 10.20794773   0.7873841778E-18
 10.33474064   0.7873823683E-18
 10.46153259   0.7873799902E-18
 10.58832550   0.7873807657E-18
 10.71511841   0.7873860390E-18
 10.84191132   0.7873971025E-18
 10.96870327   0.7874142148E-18
 11.09549618   0.7874376343E-18
 11.22228909   0.7874660687E-18
 11.34908199   0.7874978634E-18
 11.47587395   0.7875303820E-18
 11.60266685   0.7875614529E-18
 11.72945976   0.7875893186E-18
 11.85625172   0.7876111355E-18
 11.98304462   0.7876264900E-18
 12.10983753   0.7876343482E-18
 12.23663044   0.7876356924E-18
 12.36342239   0.7876322803E-18
 12.49021530   0.7876259213E-18
 12.61700821   0.7876194590E-18
 12.74380112   0.7876146510E-18
 12.87059307   0.7876141340E-18
 12.99738598   0.7876194590E-18
 13.12417889   0.7876315565E-18
 13.25097084   0.7876507885E-18
 13.37776375   0.7876766895E-18
 13.50455666   0.7877082775E-18
 13.63134956   0.7877436912E-18
 13.75814152   0.7877811728E-18
 13.88493443   0.7878182925E-18
 14.01172733   0.7878532926E-18
 14.13852024   0.7878853976E-18
 14.26531219   0.7879126945E-18
 14.39210510   0.7879351318E-18
 14.51889801   0.7879522958E-18
 14.64569092   0.7879644967E-18
 14.77248287   0.7879723032E-18
 14.89927578   0.7879765942E-18
 15.02606869   0.7879794376E-18
 15.15286064   0.7879818675E-18
 15.27965355   0.7879848143E-18
 15.40644646   0.7879880196E-18
 15.53323936   0.7879920005E-18
 15.66003132   0.7879958779E-18
 15.78682423   0.7879988247E-18
 15.91361713   0.7879989798E-18
 16.04040909   0.7879946371E-18
 16.16720200   0.7879847109E-18
 16.29399490   0.7879670816E-18
 16.42078781   0.7879400949E-18
 16.54758072   0.7879032336E-18
 16.67437363   0.7878555674E-18
 16.80116463   0.7877970443E-18
 16.92795753   0.7877287502E-18
 17.05475044   0.7876522360E-18
 17.18154335   0.7875696214E-18
 17.30833626   0.7874828708E-18
 17.43512917   0.7873943108E-18
 17.56192207   0.7873060092E-18
 17.68871498   0.7872190519E-18
 17.81550598   0.7871347311E-18
 17.94229889   0.7870525301E-18
 18.06909180   0.7869709494E-18
 18.19588470   0.7868889551E-18
 18.32267761   0.7868038072E-18
 18.44947052   0.7867131792E-18
 18.57626343   0.7866142277E-18
 18.70305443   0.7865053501E-18
 18.82984734   0.7863851504E-18
 18.95664024   0.7862529566E-18
 19.08343315   0.7861091823E-18
 19.21022606   0.7859556369E-18
 19.33701897   0.7857939231E-18
 19.46381187   0.7856268326E-18
 19.59060478   0.7854582945E-18
 19.71739578   0.7852911524E-18
 19.84418869   0.7851274223E-18
 19.97098160   0.7849702580E-18
 20.09777451   0.7848200213E-18
 20.22456741   0.7846775911E-18
 20.35136032   0.7845418818E-18
 20.47815323   0.7844120662E-18
 20.60494423   0.7842864381E-18
 20.73173714   0.7841641705E-18
 20.85853004   0.7840430402E-18
 20.98532295   0.7839222718E-18
 21.11211586   0.7838009865E-18
 21.23890877   0.7836791324E-18
 21.36570168   0.7835566063E-18
 21.49249458   0.7834340802E-18
 21.61928558   0.7833132084E-18
 21.74607849   0.7831946114E-18
 21.87287140   0.7830794782E-18
 21.99966431   0.7829676020E-18
 22.12645721   0.7828582591E-18
 22.25325012   0.7827501569E-18
 22.38004303   0.7826416412E-18
 22.50683403   0.7825287827E-18
 22.63362694   0.7824069287E-18
 22.76041985   0.7822710642E-18
 22.88721275   0.7821167951E-18
 23.01400566   0.7819388478E-18
 23.14079857   0.7817348444E-18
 23.26759148   0.7815022516E-18
 23.39438438   0.7812400870E-18
 23.52117538   0.7809492296E-18
 23.64796829   0.7806308168E-18
 23.77476120   0.7802879504E-18
 23.90155411   0.7799227502E-18
 24.02834702   0.7795386282E-18
 24.15513992   0.7791381177E-18
 24.28193283   0.7787233900E-18
 24.40872383   0.7782936180E-18
 24.53551674   0.7778487499E-18
 24.66230965   0.7773865110E-18
 24.78910255   0.7769028172E-18
 24.91589546   0.7763943596E-18
 25.04268837   0.7758573643E-18
 25.16948128   0.7752888844E-18
 25.29627419   0.7746863350E-18
 25.42306519   0.7740486822E-18
 25.54985809   0.7733762877E-18
 25.67665100   0.7726713747E-18
 25.80344391   0.7719368901E-18
 25.93023682   0.7711758839E-18
 26.05702972   0.7703927506E-18
 26.18382263   0.7695897134E-18
 26.31061363   0.7687703393E-18
 26.43740654   0.7679355072E-18
 26.56419945   0.7670855792E-18
 26.69099236   0.7662193660E-18
 26.81778526   0.7653331970E-18
 26.94457817   0.7644245908E-18
 27.07137108   0.7634887394E-18
 27.19816399   0.7625220237E-18
 27.32495499   0.7615209801E-18
 27.45174789   0.7604846779E-18
 27.57854080   0.7594118246E-18
 27.70533371   0.7583044883E-18
 27.83212662   0.7571652538E-18
 27.95891953   0.7559992910E-18
 28.08571243   0.7548120800E-18
 28.21250343   0.7536094111E-18
 28.33929634   0.7523977983E-18
 28.46608925   0.7511826700E-18
 28.59288216   0.7499676968E-18
 28.71967506   0.7487563425E-18
 28.84646797   0.7475494859E-18
 28.97326088   0.7463466619E-18
 29.10005379   0.7451466814E-18
 29.22684479   0.7439465974E-18
 29.35363770   0.7427432564E-18
 29.48043060   0.7415326776E-18
 29.60722351   0.7403135684E-18
 29.73401642   0.7390836026E-18
 29.86080933   0.7378428317E-18
 29.98760223   0.7365921863E-18
 30.11439323   0.7353332691E-18
 30.24118614   0.7340696473E-18
 30.36797905   0.7328042160E-18
 30.49477196   0.7315397154E-18
 30.62156487   0.7302782133E-18
 30.74835777   0.7290220361E-18
 30.87515068   0.7277706669E-18
 31.00194168   0.7265220378E-18
 31.12873459   0.7252751147E-18
 31.25552750   0.7240258652E-18
 31.38232040   0.7227694295E-18
 31.50911331   0.7215017236E-18
 31.63590622   0.7202185596E-18
 31.76269913   0.7189175079E-18
 31.88949203   0.7175962937E-18
 32.01628494   0.7162548652E-18
 32.14307785   0.7148947218E-18
 32.26987076   0.7135178280E-18
 32.39666367   0.7121281646E-18
 32.52345276   0.7107289885E-18
 32.65024567   0.7093234536E-18
 32.77703857   0.7079150752E-18
 32.90383148   0.7065071104E-18
 33.03062439   0.7051001796E-18
 33.15741730   0.7036942827E-18
 33.28421021   0.7022893682E-18
 33.41100311   0.7008845053E-18
 33.53779602   0.6994777813E-18
 33.66458893   0.6980688342E-18
 33.79138184   0.6966575607E-18
 33.91817474   0.6952442192E-18
 34.04496765   0.6938309294E-18
 34.17176056   0.6924219306E-18
 34.29855347   0.6910220308E-18
 34.42534256   0.6896367618E-18
 34.55213547   0.6882727410E-18
 34.67892838   0.6869352933E-18
 34.80572128   0.6856296921E-18
 34.93251419   0.6843607454E-18
 35.05930710   0.6831295904E-18
 35.18610001   0.6819363824E-18
 35.31289291   0.6807798288E-18
 35.43968582   0.6796564141E-18
 35.56647873   0.6785609685E-18
 35.69327164   0.6774893043E-18
 35.82006454   0.6764352694E-18
 35.94685745   0.6753947279E-18
 36.07365036   0.6743632337E-18
 36.20044327   0.6733382018E-18
 36.32723236   0.6723186500E-18
 36.45402527   0.6713040613E-18
 36.58081818   0.6702957281E-18
 36.70761108   0.6692961837E-18
 36.83440399   0.6683077546E-18
 36.96119690   0.6673334909E-18
 37.08798981   0.6663765981E-18
 37.21478271   0.6654390922E-18
 37.34157562   0.6645226795E-18
 37.46836853   0.6636284973E-18
 37.59516144   0.6627564938E-18
 37.72195435   0.6619068242E-18
 37.84874725   0.6610778342E-18
 37.97554016   0.6602686447E-18
 38.10232925   0.6594777567E-18
 38.22912216   0.6587038775E-18
 38.35591507   0.6579447325E-18
 38.48270798   0.6571993394E-18
 38.60950089   0.6564671294E-18
 38.73629379   0.6557477408E-18
 38.86308670   0.6550412252E-18
 38.98987961   0.6543483063E-18
 39.11667252   0.6536698631E-18
 39.24346542   0.6530068778E-18
 39.37025833   0.6523601260E-18
 39.49705124   0.6517297110E-18
 39.62384415   0.6511160464E-18
 39.75063705   0.6505173744E-18
 39.87742996   0.6499322475E-18
 40.00421906   0.6493576155E-18
 40.13101196   0.6487897043E-18
 40.25780487   0.6482259807E-18
 40.38459778   0.6476631877E-18
 40.51139069   0.6470982750E-18
 40.63818359   0.6465300019E-18
 40.76497650   0.6459559386E-18
 40.89176941   0.6453756197E-18
 41.01856232   0.6447904928E-18
 41.14535522   0.6442005579E-18
 41.27214813   0.6436076245E-18
 41.39894104   0.6430135021E-18
 41.52573395   0.6424206721E-18
 41.65252686   0.6418315127E-18
 41.77931976   0.6412484537E-18
 41.90610886   0.6406728911E-18
 42.03290176   0.6401074615E-18
 42.15969467   0.6395521648E-18
 42.28648758   0.6390082935E-18
 42.41328049   0.6384753824E-18
 42.54007339   0.6379541035E-18
 42.66686630   0.6374440433E-18
 42.79365921   0.6369448398E-18
 42.92045212   0.6364561312E-18
 43.04724503   0.6359780725E-18
 43.17403793   0.6355105603E-18
 43.30083084   0.6350546804E-18
 43.42762375   0.6346105878E-18
 43.55441666   0.6341795233E-18
 43.68120956   0.6337626243E-18
 43.80799866   0.6333600975E-18
 43.93479156   0.6329719947E-18
 44.06158447   0.6325966615E-18
 44.18837738   0.6322327537E-18
 44.31517029   0.6318772729E-18
 44.44196320   0.6315268585E-18
 44.56875610   0.6311770645E-18
 44.69554901   0.6308235999E-18
 44.82234192   0.6304619668E-18
 44.94913483   0.6300884948E-18
 45.07592773   0.6296989444E-18
 45.20272064   0.6292909376E-18
 45.32951355   0.6288625097E-18
 45.45630646   0.6284125752E-18
 45.58309937   0.6279424264E-18
 45.70988846   0.6274519083E-18
 45.83668137   0.6269438643E-18
 45.96347427   0.6264196386E-18
 46.09026718   0.6258824365E-18
 46.21706009   0.6253336021E-18
 46.34385300   0.6247749450E-18
 46.47064590   0.6242078610E-18
 46.59743881   0.6236331256E-18
 46.72423172   0.6230508421E-18
 46.85102463   0.6224613726E-18
 46.97781754   0.6218645100E-18
 47.10461044   0.6212593757E-18
 47.23140335   0.6206459696E-18
 47.35819626   0.6200244985E-18
 47.48498917   0.6193962031E-18
 47.61177826   0.6187626861E-18
 47.73857117   0.6181264292E-18
 47.86536407   0.6174909477E-18
 47.99215698   0.6168601190E-18
 48.11894989   0.6162385962E-18
 48.24574280   0.6156307219E-18
 48.37253571   0.6150412523E-18
 48.49932861   0.6144731343E-18
 48.62612152   0.6139289528E-18
 48.75291443   0.6134084494E-18
 48.87970734   0.6129104867E-18
 49.00650024   0.6124322212E-18
 49.13329315   0.6119680695E-18
 49.26008606   0.6115130685E-18
 49.38687897   0.6110602905E-18
 49.51366806   0.6106036351E-18
 49.64046097   0.6101374154E-18
 49.76725388   0.6096574956E-18
 49.89404678   0.6091604117E-18
 50.02083969   0.6086454401E-18
 50.14763260   0.6081136663E-18
 50.27442551   0.6075670034E-18
 50.40121841   0.6070090700E-18
 50.52801132   0.6064432268E-18
 50.65480423   0.6058719035E-18
 50.78159714   0.6052979952E-18
 50.90839005   0.6047231047E-18
 51.03518295   0.6041470251E-18
 51.16197586   0.6035685674E-18
 51.28876877   0.6029858703E-18
 51.41555786   0.6023970728E-18
 51.54235077   0.6018007790E-18
 51.66914368   0.6011957481E-18
 51.79593658   0.6005831691E-18
 51.92272949   0.5999637143E-18
 52.04952240   0.5993416744E-18
 52.17631531   0.5987225814E-18
 52.30310822   0.5981113467E-18
 52.42990112   0.5975144842E-18
 52.55669403   0.5969374223E-18
 52.68348694   0.5963839351E-18
 52.81027985   0.5958567108E-18
 52.93707275   0.5953556462E-18
 53.06386566   0.5948781562E-18
 53.19065857   0.5944209321E-18
 53.31744766   0.5939761157E-18
 53.44424057   0.5935357454E-18
 53.57103348   0.5930908773E-18
 53.69782639   0.5926309132E-18
 53.82461929   0.5921458235E-18
 53.95141220   0.5916273880E-18
 54.07820511   0.5910672317E-18
 54.20499802   0.5904601328E-18
 54.33179092   0.5898013868E-18
 54.45858383   0.5890903217E-18
 54.58537674   0.5883282816E-18
 54.71216965   0.5875197642E-18
 54.83896255   0.5866716973E-18
 54.96575546   0.5857942138E-18
 55.09254837   0.5849022546E-18
 55.21933746   0.5840121048E-18
 55.34613037   0.5831444441E-18
 55.47292328   0.5823236224E-18
 55.59971619   0.5815766783E-18
 55.72650909   0.5809322529E-18
 55.85330200   0.5804221410E-18
 55.98009491   0.5800768448E-18
 56.10688782   0.5799247986E-18
 56.23368073   0.5799900425E-18
 56.36047363   0.5802916532E-18
 56.48726654   0.5808373856E-18
 56.61405945   0.5816228453E-18
 56.74085236   0.5826306098E-18
 56.86764526   0.5838252137E-18
 56.99443817   0.5851532005E-18
 57.12122726   0.5865426054E-18
 57.24802017   0.5879033692E-18
 57.37481308   0.5891284237E-18
 57.50160599   0.5900976209E-18
 57.62839890   0.5906815587E-18
 57.75519180   0.5907462339E-18
 57.88198471   0.5901619342E-18
 58.00877762   0.5888094422E-18
 58.13557053   0.5865891860E-18
 58.26236343   0.5834305452E-18
 58.38915634   0.5793011044E-18
 58.51594925   0.5742161150E-18
 58.64274216   0.5682447499E-18
 58.76953506   0.5615184790E-18
 58.89632797   0.5542326722E-18
 59.02311707   0.5466484600E-18
 59.14990997   0.5390897352E-18
 59.27670288   0.5319342610E-18
 59.40349579   0.5256076218E-18
 59.53028870   0.5205623888E-18
 59.65708160   0.5172616279E-18
 59.78387451   0.5161549637E-18
 59.91066742   0.5176528327E-18
 60.03746033   0.5220979462E-18
 60.16425323   0.5297359252E-18
 60.29104614   0.5406857285E-18
 60.41783905   0.5549144241E-18
 60.54463196   0.5722135625E-18
 60.67142487   0.5921800481E-18
 60.79821777   0.6142068855E-18
 60.92500687   0.6374818351E-18
 61.05179977   0.6609942889E-18
 61.17859268   0.6835572428E-18
 61.30538559   0.7038400216E-18
 61.43217850   0.7204149116E-18
 61.55897141   0.7318125299E-18
 61.68576431   0.7365940991E-18
 61.81255722   0.7334290993E-18
 61.93935013   0.7211819665E-18
 62.06614304   0.6990009633E-18
 62.19293594   0.6664072555E-18
 62.31972885   0.6233745800E-18
 62.44652176   0.5704052939E-18
 62.57331467   0.5085812980E-18
 62.70010757   0.4395999667E-18
 62.82689667   0.3657799648E-18
 62.95368958   0.2900376211E-18
 63.08048248   0.2158253417E-18
 63.20727539   0.1470389536E-18
 63.33406830   0.8788242124E-19
 63.46086121   0.4270311834E-19
 63.58765411   0.1579015411E-19
 63.71444702   0.1114985990E-19
 63.84123993   0.3226234125E-19
 63.96803284   0.8183004409E-19
 64.09482574   0.1615307056E-18
 64.22161865   0.2717874835E-18
 64.34841156   0.4115694265E-18
 64.47520447   0.5782396249E-18
 64.60199738   0.7674616361E-18
 64.72879028   0.9731799552E-18
 64.85558319   0.1187684328E-17
 64.98237610   0.1401766736E-17
 65.10916901   0.1604974303E-17
 65.23596191   0.1785958630E-17
 65.36275482   0.1932916364E-17
 65.48954773   0.2034114468E-17
 65.61633301   0.2078475957E-17
 65.74312592   0.2056215700E-17
 65.86991882   0.1959492437E-17
 65.99671173   0.1783051296E-17
 66.12350464   0.1524816986E-17
 66.25029755   0.1186411194E-17
 66.37709045   0.7735483413E-18
 66.50388336   0.2962827571E-18
 66.63067627   -0.2309317147E-18
 66.75746918   -0.7893874541E-18
 66.88426208   -0.1356504550E-17
 67.01105499   -0.1906445551E-17
 67.13784790   -0.2410972164E-17
 67.26464081   -0.2840522507E-17
 67.39143372   -0.3165492405E-17
 67.51822662   -0.3357671483E-17
 67.64501953   -0.3391785239E-17
 67.77181244   -0.3247083226E-17
 67.89860535   -0.2908893327E-17
 68.02539825   -0.2370061879E-17
 68.15219116   -0.1632198058E-17
 68.27898407   -0.7066334622E-18
 68.40577698   0.3849817220E-18
 68.53256989   0.1610520653E-17
 68.65936279   0.2927718097E-17
 68.78615570   0.4285042073E-17
 68.91294861   0.5623125000E-17
 69.03974152   0.6876739139E-17
 69.16653442   0.7977285987E-17
 69.29332733   0.8855732772E-17
 69.42011261   0.9445908769E-17
 69.54690552   0.9688019571E-17
 69.67369843   0.9532256498E-17
 69.80049133   0.8942312113E-17
 69.92728424   0.7898631037E-17
 70.05407715   0.6401190937E-17
 70.18087006   0.4471652778E-17
 70.30766296   0.2154665909E-17
 70.43445587   -0.4817933123E-18
 70.56124878   -0.3347185935E-17
 70.68804169   -0.6330372282E-17
 70.81483459   -0.9302779226E-17
 70.94162750   -0.1212276036E-16
 71.06842041   -0.1464107203E-16
 71.19521332   -0.1670728648E-16
 71.32200623   -0.1817695647E-16
 71.44879913   -0.1891924188E-16
 71.57559204   -0.1882467032E-16
 71.70238495   -0.1781266613E-16
 71.82917786   -0.1583847056E-16
 71.95597076   -0.1289901890E-16
 72.08276367   -0.9037385771E-17
 72.20955658   -0.4345457690E-17
 72.33634949   0.1035518768E-17
 72.46314240   0.6916740766E-17
 72.58993530   0.1306615819E-16
 72.71672821   0.1921533615E-16
 72.84352112   0.2506879703E-16
 72.97031403   0.3031564005E-16
 73.09710693   0.3464308506E-16
 73.22389221   0.3775149745E-16
 73.35068512   0.3937026013E-16
 73.47747803   0.3927387705E-16
 73.60427094   0.3729747456E-16
 73.73106384   0.3335089659E-16
 73.85785675   0.2743060282E-16
 73.98464966   0.1962850128E-16
 74.11144257   0.1013703720E-16
 74.23823547   -0.7500851564E-18
 74.36502838   -0.1264206269E-16
 74.49182129   -0.2506026549E-16
 74.61861420   -0.3745273636E-16
 74.74540710   -0.4921362340E-16
 74.87220001   -0.5970718702E-16
 74.99899292   -0.6829563126E-16
 75.12578583   -0.7436973761E-16
 75.25257874   -0.7738116474E-16
 75.37937164   -0.7687498314E-16
 75.50616455   -0.7252084336E-16
 75.63295746   -0.6414127215E-16
 75.75975037   -0.5173527357E-16
 75.88654327   -0.3549583548E-16
 76.01333618   -0.1581980936E-16
 76.14012909   0.6691096235E-17
 76.26692200   0.3123887619E-16
 76.39371490   0.5684813318E-16
 76.52050781   0.8239517627E-16
 76.64730072   0.1066469935E-15
 76.77409363   0.1283091464E-15
 76.90088654   0.1460811682E-15
 77.02767181   0.1587174969E-15
 77.15446472   0.1650915654E-15
 77.28125763   0.1642604143E-15
 77.40805054   0.1555266708E-15
 77.53484344   0.1384948500E-15
 77.66163635   0.1131188149E-15
 77.78842926   0.7973723982E-16
 77.91522217   0.3909449135E-16
 78.04201508   -0.7655468888E-17
 78.16880798   -0.5896387590E-16
 78.29560089   -0.1129215224E-15
 78.42239380   -0.1673130019E-15
 78.54918671   -0.2196898004E-15
 78.67597961   -0.2674608704E-15
 78.80277252   -0.3079978821E-15
 78.92956543   -0.3387513455E-15
 79.05635834   -0.3573736031E-15
 79.18315125   -0.3618434224E-15
 79.30994415   -0.3505865398E-15
 79.43673706   -0.3225866217E-15
 79.56352997   -0.2774803173E-15
 79.69032288   -0.2156312288E-15
 79.81711578   -0.1381773582E-15
 79.94390869   -0.4704775353E-16
 80.07070160   0.5505494458E-16
 80.19749451   0.1647078065E-15
 80.32428741   0.2778576175E-15
 80.45108032   0.3899463345E-15
 80.57787323   0.4960691337E-15
 80.70465851   0.5911603346E-15
 80.83145142   0.6702017964E-15
 80.95824432   0.7284451583E-15
 81.08503723   0.7616401148E-15
 81.21183014   0.7662581384E-15
 81.33862305   0.7397020673E-15
 81.46541595   0.6804909174E-15
 81.59220886   0.5884089598E-15
 81.71900177   0.4646119711E-15
 81.84579468   0.3116803843E-15
 81.97258759   0.1336147358E-15
 82.09938049   -0.6423078632E-16
 82.22617340   -0.2752791434E-15
 82.35296631   -0.4919232250E-15
 82.47975922   -0.7057765978E-15
 82.60655212   -0.9079761208E-15
 82.73334503   -0.1089525245E-14
 82.86013794   -0.1241666974E-14
 82.98693085   -0.1356271484E-14
 83.11372375   -0.1426221900E-14
 83.24051666   -0.1445781162E-14
 83.36730957   -0.1410923850E-14
 83.49410248   -0.1319613910E-14
 83.62089539   -0.1172014925E-14
 83.74768829   -0.9706164307E-15
 83.87448120   -0.7202680610E-15
 84.00127411   -0.4281129244E-15
 84.12806702   -0.1034161253E-15
 84.25485992   0.2427085295E-15
 84.38165283   0.5976704180E-15
 84.50843811   0.9478590906E-15
 84.63523102   0.1279174440E-14
 84.76202393   0.1577607123E-14
 84.88881683   0.1829849723E-14
 85.01560974   0.2023911324E-14
 85.14240265   0.2149706940E-14
 85.26919556   0.2199595910E-14
 85.39598846   0.2168840779E-14
 85.52278137   0.2055958815E-14
 85.64957428   0.1862949229E-14
 85.77636719   0.1595368239E-14
 85.90316010   0.1262251145E-14
 86.02995300   0.8758665311E-15
 86.15674591   0.4513062482E-15
 86.28353882   0.5921089106E-17
 86.41033173   -0.4413812985E-15
 86.53712463   -0.8709558047E-15
 86.66391754   -0.1263320101E-14
 86.79071045   -0.1600102941E-14
 86.91750336   -0.1864996720E-14
 87.04429626   -0.2044669984E-14
 87.17108917   -0.2129592237E-14
 87.29788208   -0.2114727867E-14
 87.42467499   -0.2000054429E-14
 87.55146790   -0.1790868631E-14
 87.67826080   -0.1497848701E-14
 87.80505371   -0.1136852364E-14
 87.93184662   -0.7284384879E-15
 88.05863953   -0.2971156263E-15
 88.18543243   0.1296690578E-15
 88.31221771   0.5227735943E-15
 88.43901062   0.8527947830E-15
 88.56580353   0.1091640816E-14
 88.69259644   0.1214174296E-14
 88.81938934   0.1199861980E-14
 88.94618225   0.1034338402E-14
 89.07297516   0.7108136381E-15
 89.19976807   0.2312343036E-15
 89.32656097   -0.3928757185E-15
 89.45335388   -0.1139969657E-14
 89.58014679   -0.1978479441E-14
 89.70693970   -0.2867318970E-14
 89.83373260   -0.3756903253E-14
 89.96052551   -0.4590690722E-14
 90.08731842   -0.5307234009E-14
 90.21411133   -0.5842688428E-14
 90.34090424   -0.6133712431E-14
 90.46769714   -0.6120662618E-14
 90.59449005   -0.5750984405E-14
 90.72128296   -0.4982631078E-14
 90.84807587   -0.3787402792E-14
 90.97486877   -0.2154015161E-14
 91.10166168   -0.9074202422E-16
 91.22845459   0.2372519168E-14
 91.35524750   0.5182917948E-14
 91.48204041   0.8264194687E-14
 91.60883331   0.1151721117E-13
 91.73562622   0.1482151973E-13
 91.86241913   0.1803805789E-13
 91.98921204   0.2101292908E-13
 92.11599731   0.2358224937E-13
 92.24279022   0.2557793861E-13
 92.36958313   0.2683434428E-13
 92.49637604   0.2719548355E-13
 92.62316895   0.2652267173E-13
 92.74996185   0.2470225901E-13
 92.87675476   0.2165319959E-13
 93.00354767   0.1733407356E-13
 93.13034058   0.1174927533E-13
 93.25713348   0.4954001365E-14
 93.38392639   -0.2942253857E-14
 93.51071930   -0.1177401885E-13
 93.63751221   -0.2132018181E-13
 93.76430511   -0.3130655796E-13
 93.89109802   -0.4141082076E-13
 94.01789093   -0.5126974217E-13
 94.14468384   -0.6048882505E-13
 94.27147675   -0.6865403293E-13
 94.39826965   -0.7534547124E-13
 94.52506256   -0.8015262716E-13
 94.65185547   -0.8269073089E-13
 94.77864838   -0.8261773698E-13
 94.90544128   -0.7965128530E-13
 95.03223419   -0.7358510638E-13
 95.15902710   -0.6430404440E-13
 95.28582001   -0.5179716587E-13
 95.41261292   -0.3616815777E-13
 95.53940582   -0.1764250536E-13
 95.66619873   0.3429220722E-14
 95.79299164   0.2657232141E-13
 95.91977692   0.5119358713E-13
 96.04656982   0.7659170065E-13
 96.17336273   0.1019724466E-12
 96.30015564   0.1264687004E-12
 96.42694855   0.1491646569E-12
 96.55374146   0.1691238973E-12
 96.68053436   0.1854205808E-12
 96.80732727   0.1971728309E-12
 96.93412018   0.2035773216E-12
 97.06091309   0.2039438361E-12
 97.18770599   0.1977287149E-12
 97.31449890   0.1845655790E-12
 97.44129181   0.1642924891E-12
 97.56808472   0.1369737928E-12
 97.69487762   0.1029158448E-12
 97.82167053   0.6267536268E-13
 97.94846344   0.1705978396E-13
 98.07525635   -0.3288123625E-13
 98.20204926   -0.8587328439E-13
 98.32884216   -0.1404437547E-12
 98.45563507   -0.1949571553E-12
 98.58242798   -0.2476586102E-12
 98.70922089   -0.2967244235E-12
 98.83601379   -0.3403185123E-12
 98.96280670   -0.3766531087E-12
 99.08959961   -0.4040520089E-12
 99.21639252   -0.4210138369E-12
 99.34318542   -0.4262737353E-12
 99.46997833   -0.4188608282E-12
 99.59677124   -0.3981492328E-12
 99.72355652   -0.3639006685E-12
 99.85034943   -0.3162961700E-12
 99.97714233   -0.2559559281E-12
 100.1039352   -0.1839450901E-12
 100.2307281   -0.1017649371E-12
 100.3575211   -0.1132886153E-13
 100.4843140   0.8507697178E-13
 100.6111069   0.1848475664E-12
 100.7378998   0.2851267670E-12
 100.8646927   0.3828868375E-12
 100.9914856   0.4750180284E-12
 101.1182785   0.5584252136E-12
 101.2450714   0.6301290327E-12
 101.3718643   0.6873676975E-12
 101.4986572   0.7276966031E-12
 101.6254501   0.7490816236E-12
 101.7522430   0.7499829208E-12
 101.8790359   0.7294259597E-12
 102.0058289   0.6870562604E-12
 102.1326218   0.6231762068E-12
 102.2594147   0.5387608220E-12
 102.3862076   0.4354519675E-12
 102.5130005   0.3155301270E-12
 102.6397934   0.1818637472E-12
 102.7665863   0.3783691771E-13
 102.8933792   -0.1127418810E-12
 103.0201721   -0.2657487132E-12
 103.1469650   -0.4168663841E-12
 103.2737579   -0.5617170683E-12
 103.4005508   -0.6959998983E-12
 103.5273361   -0.8156299529E-12
 103.6541290   -0.9168728060E-12
 103.7809219   -0.9964702674E-12
 103.9077148   -0.1051752544E-11
 104.0345078   -0.1080732942E-11
 104.1613007   -0.1082179376E-11
 104.2880936   -0.1055663152E-11
 104.4148865   -0.1001579462E-11
 104.5416794   -0.9211403341E-12
 104.6684723   -0.8163386959E-12
 104.7952652   -0.6898859197E-12
 104.9220581   -0.5451231372E-12
 105.0488510   -0.3859103792E-12
 105.1756439   -0.2164977588E-12
 105.3024368   -0.4138205552E-13
 105.4292297   0.1348444197E-12
 105.5560226   0.3076473809E-12
 105.6828156   0.4727011968E-12
 105.8096085   0.6260294475E-12
 105.9364014   0.7641308918E-12
 106.0631943   0.8840850144E-12
 106.1899872   0.9836324463E-12
 106.3167801   0.1061228471E-11
 106.4435730   0.1116065140E-11
 106.5703659   0.1148062873E-11
 106.6971588   0.1157831751E-11
 106.8239517   0.1146602127E-11
 106.9507446   0.1116131168E-11
 107.0775375   0.1068587276E-11
 107.2043304   0.1006417389E-11
 107.3311157   0.9322054847E-12
 107.4579086   0.8485283873E-12
 107.5847015   0.7578142757E-12
 107.7114944   0.6622151829E-12
 107.8382874   0.5634952140E-12
 107.9650803   0.4629452204E-12
 108.0918732   0.3613268267E-12
 108.2186661   0.2588495553E-12
 108.3454590   0.1551849740E-12
 108.4722519   0.4951705482E-13
 108.5990448   -0.5937132432E-13
 108.7258377   -0.1729792253E-12
 108.8526306   -0.2929405850E-12
 108.9794235   -0.4208552452E-12
 109.1062164   -0.5581061329E-12
 109.2330093   -0.7056715780E-12
 109.3598022   -0.8639433027E-12
 109.4865952   -0.1032558045E-11
 109.6133881   -0.1210255203E-11
 109.7401810   -0.1394769716E-11
 109.8669739   -0.1582766470E-11
 109.9937668   -0.1769826364E-11
 110.1205597   -0.1950486864E-11
 110.2473526   -0.2118340225E-11
 110.3741455   -0.2266190057E-11
 110.5009384   -0.2386265447E-11
 110.6277313   -0.2470482369E-11
 110.7545242   -0.2510752023E-11
 110.8813171   -0.2499318461E-11
 111.0081024   -0.2429119839E-11
 111.1348953   -0.2294151414E-11
 111.2616882   -0.2089824624E-11
 111.3884811   -0.1813296475E-11
 111.5152740   -0.1463759235E-11
 111.6420670   -0.1042674519E-11
 111.7688599   -0.5539373214E-12
 111.8956528   -0.3960134832E-14
 112.0224457   0.5983365387E-12
 112.1492386   0.1241624967E-11
 112.2760315   0.1912368701E-11
 112.4028244   0.2595116830E-11
 112.5296173   0.3272883266E-11
 112.6564102   0.3927606504E-11
 112.7832031   0.4540670791E-11
 112.9099960   0.5093474253E-11
 113.0367889   0.5568020003E-11
 113.1635818   0.5947514183E-11