 -4.500000000   0.1550963338E-17
 -4.373207569   0.1550967164E-17
 -4.246414661   0.1550975126E-17
 -4.119622231   0.1550985776E-17
 -3.992829323   0.1550997873E-17
 -3.866036654   0.1551010281E-17
 -3.739243984   0.1551021965E-17
 -3.612451553   0.1551031684E-17
 -3.485658884   0.1551038612E-17
 -3.358866215   0.1551043058E-17
 -3.232073545   0.1551044505E-17
 -3.105280876   0.1551043988E-17
 -2.978488207   0.1551041610E-17
 -2.851695538   0.1551038922E-17
 -2.724902868   0.1551036854E-17
 -2.598110199   0.1551035717E-17
 -2.471317530   0.1551036544E-17
 -2.344524860   0.1551039129E-17
 -2.217732191   0.1551042748E-17
 -2.090939522   0.1551046573E-17
 -1.964146972   0.1551050089E-17
 -1.837354302   0.1551051433E-17
 -1.710561633   0.1551049779E-17
 -1.583768964   0.1551043678E-17
 -1.456976295   0.1551033339E-17
 -1.330183744   0.1551018036E-17
 -1.203391075   0.1550999321E-17
 -1.076598406   0.1550978434E-17
 -0.9498057365   0.1550955894E-17
 -0.8230130672   0.1550934594E-17
 -0.6962204576   0.1550914638E-17
 -0.5694277883   0.1550898198E-17
 -0.4426351190   0.1550885480E-17
 -0.3158424795   0.1550875554E-17
 -0.1890498251   0.1550868419E-17
 -0.6225717068E-01   0.1550862009E-17
 0.6453548372E-01   0.1550854874E-17
 0.1913281381   0.1550845362E-17
 0.3181207776   0.1550831817E-17
 0.4449134469   0.1550813205E-17
 0.5717061162   0.1550788907E-17
 0.6984987259   0.1550759955E-17
 0.8252913952   0.1550726868E-17
 0.9520840645   0.1550690782E-17
 1.078876734   0.1550655317E-17
 1.205669403   0.1550621092E-17
 1.332461953   0.1550590176E-17
 1.459254622   0.1550564017E-17
 1.586047292   0.1550542924E-17
 1.712839961   0.1550526380E-17
 1.839632630   0.1550512732E-17
 1.966425300   0.1550500634E-17
 2.093217850   0.1550487606E-17
 2.220010519   0.1550472096E-17
 2.346803188   0.1550452451E-17
 2.473595858   0.1550427325E-17
 2.600388527   0.1550396926E-17
 2.727181196   0.1550361254E-17
 2.853973866   0.1550322273E-17
 2.980766535   0.1550281225E-17
 3.107559204   0.1550240486E-17
 3.234351873   0.1550202022E-17
 3.361144543   0.1550166763E-17
 3.487936974   0.1550136261E-17
 3.614729643   0.1550110825E-17
 3.741522312   0.1550089939E-17
 3.868314981   0.1550072982E-17
 3.995107651   0.1550057679E-17
 4.121900558   0.1550042893E-17
 4.248692989   0.1550026970E-17
 4.375485420   0.1550007841E-17
 4.502278328   0.1549984577E-17
 4.629070759   0.1549957487E-17
 4.755863667   0.1549925227E-17
 4.882656097   0.1549889141E-17
 5.009449005   0.1549850160E-17
 5.136241436   0.1549810559E-17
 5.263034344   0.1549771474E-17
 5.389826775   0.1549735079E-17
 5.516619682   0.1549701888E-17
 5.643412113   0.1549673040E-17
 5.770205021   0.1549648535E-17
 5.896997452   0.1549628889E-17
 6.023790359   0.1549612242E-17
 6.150582790   0.1549598594E-17
 6.277375221   0.1549585359E-17
 6.404168129   0.1549570676E-17
 6.530960560   0.1549553202E-17
 6.657753468   0.1549532212E-17
 6.784545898   0.1549506156E-17
 6.911338806   0.1549474930E-17
 7.038131237   0.1549439051E-17
 7.164924145   0.1549399036E-17
 7.291716576   0.1549357057E-17
 7.418509483   0.1549314767E-17
 7.545301914   0.1549274339E-17
 7.672094822   0.1549237426E-17
 7.798887253   0.1549205476E-17
 7.925679684   0.1549180040E-17
 8.052472115   0.1549160188E-17
 8.179265022   0.1549146023E-17
 8.306057930   0.1549135579E-17
 8.432850838   0.1549128031E-17
 8.559642792   0.1549120794E-17
 8.686435699   0.1549113039E-17
 8.813228607   0.1549102389E-17
 8.940021515   0.1549087706E-17
 9.066813469   0.1549069198E-17
 9.193606377   0.1549046657E-17
 9.320399284   0.1549020394E-17
 9.447192192   0.1548992477E-17
 9.573984146   0.1548963939E-17
 9.700777054   0.1548936642E-17
 9.827569962   0.1548912241E-17
 9.954361916   0.1548890941E-17
 10.08115482   0.1548873053E-17
 10.20794773   0.1548857440E-17
 10.33474064   0.1548842654E-17
 10.46153259   0.1548827351E-17
 10.58832550   0.1548809257E-17
 10.71511841   0.1548787233E-17
 10.84191132   0.1548759833E-17
 10.96870327   0.1548727366E-17
 11.09549618   0.1548689315E-17
 11.22228909   0.1548647129E-17
 11.34908199   0.1548603289E-17
 11.47587395   0.1548559655E-17
 11.60266685   0.1548518916E-17
 11.72945976   0.1548483761E-17
 11.85625172   0.1548456567E-17
 11.98304462   0.1548438990E-17
 12.10983753   0.1548431338E-17
 12.23663044   0.1548434234E-17
 12.36342239   0.1548446124E-17
 12.49021530   0.1548465149E-17
 12.61700821   0.1548488931E-17
 12.74380112   0.1548513023E-17
 12.87059307   0.1548533909E-17
 12.99738598   0.1548547971E-17
 13.12417889   0.1548551797E-17
 13.25097084   0.1548542387E-17
 13.37776375   0.1548517986E-17
 13.50455666   0.1548478074E-17
 13.63134956   0.1548422963E-17
 13.75814152   0.1548353997E-17
 13.88493443   0.1548273967E-17
 14.01172733   0.1548186390E-17
 14.13852024   0.1548095917E-17
 14.26531219   0.1548006788E-17
 14.39210510   0.1547923036E-17
 14.51889801   0.1547849210E-17
 14.64569092   0.1547788619E-17
 14.77248287   0.1547744365E-17
 14.89927578   0.1547718516E-17
 15.02606869   0.1547712415E-17
 15.15286064   0.1547726374E-17
 15.27965355   0.1547761632E-17
 15.40644646   0.1547819225E-17
 15.53323936   0.1547900909E-17
 15.66003132   0.1548009166E-17
 15.78682423   0.1548147305E-17
 15.91361713   0.1548319462E-17
 16.04040909   0.1548529980E-17
 16.16720200   0.1548782994E-17
 16.29399490   0.1549083364E-17
 16.42078781   0.1549434295E-17
 16.54758072   0.1549840027E-17
 16.67437363   0.1550300663E-17
 16.80116463   0.1550815997E-17
 16.92795753   0.1551384580E-17
 17.05475044   0.1552002484E-17
 17.18154335   0.1552664745E-17
 17.30833626   0.1553367332E-17
 17.43512917   0.1554104350E-17
 17.56192207   0.1554871353E-17
 17.68871498   0.1555664309E-17
 17.81550598   0.1556480633E-17
 17.94229889   0.1557319291E-17
 18.06909180   0.1558180489E-17
 18.19588470   0.1559065676E-17
 18.32267761   0.1559977125E-17
 18.44947052   0.1560918250E-17
 18.57626343   0.1561891325E-17
 18.70305443   0.1562899038E-17
 18.82984734   0.1563942733E-17
 18.95664024   0.1565021790E-17
 19.08343315   0.1566134555E-17
 19.21022606   0.1567278235E-17
 19.33701897   0.1568448282E-17
 19.46381187   0.1569638802E-17
 19.59060478   0.1570844418E-17
 19.71739578   0.1572059339E-17
 19.84418869   0.1573279430E-17
 19.97098160   0.1574501383E-17
 20.09777451   0.1575723749E-17
 20.22456741   0.1576947253E-17
 20.35136032   0.1578174065E-17
 20.47815323   0.1579407908E-17
 20.60494423   0.1580652298E-17
 20.73173714   0.1581912404E-17
 20.85853004   0.1583192053E-17
 20.98532295   0.1584494242E-17
 21.11211586   0.1585819592E-17
 21.23890877   0.1587167896E-17
 21.36570168   0.1588536674E-17
 21.49249458   0.1589922925E-17
 21.61928558   0.1591322721E-17
 21.74607849   0.1592731410E-17
 21.87287140   0.1594146716E-17
 21.99966431   0.1595567192E-17
 22.12645721   0.1596992734E-17
 22.25325012   0.1598426238E-17
 22.38004303   0.1599871116E-17
 22.50683403   0.1601334295E-17
 22.63362694   0.1602819705E-17
 22.76041985   0.1604333962E-17
 22.88721275   0.1605880893E-17
 23.01400566   0.1607462049E-17
 23.14079857   0.1609076292E-17
 23.26759148   0.1610720210E-17
 23.39438438   0.1612388426E-17
 23.52117538   0.1614072773E-17
 23.64796829   0.1615764357E-17
 23.77476120   0.1617453357E-17
 23.90155411   0.1619129535E-17
 24.02834702   0.1620784103E-17
 24.15513992   0.1622409823E-17
 24.28193283   0.1624000181E-17
 24.40872383   0.1625552799E-17
 24.53551674   0.1627066333E-17
 24.66230965   0.1628540886E-17
 24.78910255   0.1629978836E-17
 24.91589546   0.1631381837E-17
 25.04268837   0.1632754234E-17
 25.16948128   0.1634098402E-17
 25.29627419   0.1635416618E-17
 25.42306519   0.1636711362E-17
 25.54985809   0.1637982222E-17
 25.67665100   0.1639230437E-17
 25.80344391   0.1640455182E-17
 25.93023682   0.1641656351E-17
 26.05702972   0.1642833636E-17
 26.18382263   0.1643986416E-17
 26.31061363   0.1645115621E-17
 26.43740654   0.1646221975E-17
 26.56419945   0.1647307649E-17
 26.69099236   0.1648376780E-17
 26.81778526   0.1649433503E-17
 26.94457817   0.1650482679E-17
 27.07137108   0.1651529165E-17
 27.19816399   0.1652578134E-17
 27.32495499   0.1653633616E-17
 27.45174789   0.1654699232E-17
 27.57854080   0.1655775704E-17
 27.70533371   0.1656863033E-17
 27.83212662   0.1657959771E-17
 27.95891953   0.1659062920E-17
 28.08571243   0.1660168343E-17
 28.21250343   0.1661272526E-17
 28.33929634   0.1662371022E-17
 28.46608925   0.1663459798E-17
 28.59288216   0.1664536064E-17
 28.71967506   0.1665598267E-17
 28.84646797   0.1666645891E-17
 28.97326088   0.1667679764E-17
 29.10005379   0.1668701435E-17
 29.22684479   0.1669713284E-17
 29.35363770   0.1670718308E-17
 29.48043060   0.1671718163E-17
 29.60722351   0.1672714502E-17
 29.73401642   0.1673708463E-17
 29.86080933   0.1674699011E-17
 29.98760223   0.1675684804E-17
 30.11439323   0.1676662635E-17
 30.24118614   0.1677630126E-17
 30.36797905   0.1678582624E-17
 30.49477196   0.1679516822E-17
 30.62156487   0.1680430339E-17
 30.74835777   0.1681320902E-17
 30.87515068   0.1682187064E-17
 31.00194168   0.1683029237E-17
 31.12873459   0.1683848456E-17
 31.25552750   0.1684647823E-17
 31.38232040   0.1685430129E-17
 31.50911331   0.1686200337E-17
 31.63590622   0.1686962791E-17
 31.76269913   0.1687723487E-17
 31.88949203   0.1688486561E-17
 32.01628494   0.1689255736E-17
 32.14307785   0.1690034940E-17
 32.26987076   0.1690825311E-17
 32.39666367   0.1691628400E-17
 32.52345276   0.1692444724E-17
 32.65024567   0.1693272422E-17
 32.77703857   0.1694110355E-17
 32.90383148   0.1694956251E-17
 33.03062439   0.1695808350E-17
 33.15741730   0.1696664689E-17
 33.28421021   0.1697524337E-17
 33.41100311   0.1698385845E-17
 33.53779602   0.1699249835E-17
 33.66458893   0.1700116824E-17
 33.79138184   0.1700987845E-17
 33.91817474   0.1701863209E-17
 34.04496765   0.1702743433E-17
 34.17176056   0.1703628619E-17
 34.29855347   0.1704516391E-17
 34.42534256   0.1705403025E-17
 34.55213547   0.1706284593E-17
 34.67892838   0.1707155304E-17
 34.80572128   0.1708009885E-17
 34.93251419   0.1708842546E-17
 35.05930710   0.1709649977E-17
 35.18610001   0.1710430215E-17
 35.31289291   0.1711183777E-17
 35.43968582   0.1711913867E-17
 35.56647873   0.1712626587E-17
 35.69327164   0.1713328243E-17
 35.82006454   0.1714028037E-17
 35.94685745   0.1714734243E-17
 36.07365036   0.1715452856E-17
 36.20044327   0.1716188737E-17
 36.32723236   0.1716943746E-17
 36.45402527   0.1717715402E-17
 36.58081818   0.1718499672E-17
 36.70761108   0.1719288906E-17
 36.83440399   0.1720076279E-17
 36.96119690   0.1720853105E-17
 37.08798981   0.1721612973E-17
 37.21478271   0.1722351542E-17
 37.34157562   0.1723067467E-17
 37.46836853   0.1723762092E-17
 37.59516144   0.1724439863E-17
 37.72195435   0.1725107605E-17
 37.84874725   0.1725774519E-17
 37.97554016   0.1726448051E-17
 38.10232925   0.1727136369E-17
 38.22912216   0.1727845469E-17
 38.35591507   0.1728578455E-17
 38.48270798   0.1729336772E-17
 38.60950089   0.1730118148E-17
 38.73629379   0.1730919686E-17
 38.86308670   0.1731734769E-17
 38.98987961   0.1732556883E-17
 39.11667252   0.1733379824E-17
 39.24346542   0.1734197389E-17
 39.37025833   0.1735004304E-17
 39.49705124   0.1735797363E-17
 39.62384415   0.1736574293E-17
 39.75063705   0.1737335092E-17
 39.87742996   0.1738081209E-17
 40.00421906   0.1738814504E-17
 40.13101196   0.1739538494E-17
 40.25780487   0.1740255867E-17
 40.38459778   0.1740969310E-17
 40.51139069   0.1741682133E-17
 40.63818359   0.1742395369E-17
 40.76497650   0.1743110674E-17
 40.89176941   0.1743826392E-17
 41.01856232   0.1744542937E-17
 41.14535522   0.1745257414E-17
 41.27214813   0.1745967549E-17
 41.39894104   0.1746669412E-17
 41.52573395   0.1747359487E-17
 41.65252686   0.1748034053E-17
 41.77931976   0.1748690627E-17
 41.90610886   0.1749328590E-17
 42.03290176   0.1749947115E-17
 42.15969467   0.1750547234E-17
 42.28648758   0.1751132258E-17
 42.41328049   0.1751706114E-17
 42.54007339   0.1752274181E-17
 42.66686630   0.1752840386E-17
 42.79365921   0.1753409486E-17
 42.92045212   0.1753985411E-17
 43.04724503   0.1754570434E-17
 43.17403793   0.1755164970E-17
 43.30083084   0.1755768605E-17
 43.42762375   0.1756380305E-17
 43.55441666   0.1756997175E-17
 43.68120956   0.1757615906E-17
 43.80799866   0.1758233397E-17
 43.93479156   0.1758846337E-17
 44.06158447   0.1759452454E-17
 44.18837738   0.1760049265E-17
 44.31517029   0.1760636149E-17
 44.44196320   0.1761213108E-17
 44.56875610   0.1761781174E-17
 44.69554901   0.1762340555E-17
 44.82234192   0.1762894146E-17
 44.94913483   0.1763443600E-17
 45.07592773   0.1763992642E-17
 45.20272064   0.1764543957E-17
 45.32951355   0.1765102718E-17
 45.45630646   0.1765672232E-17
 45.58309937   0.1766256842E-17
 45.70988846   0.1766859650E-17
 45.83668137   0.1767483551E-17
 45.96347427   0.1768129579E-17
 46.09026718   0.1768798147E-17
 46.21706009   0.1769486362E-17
 46.34385300   0.1770191947E-17
 46.47064590   0.1770909733E-17
 46.59743881   0.1771635584E-17
 46.72423172   0.1772363503E-17
 46.85102463   0.1773089354E-17
 46.97781754   0.1773809828E-17
 47.10461044   0.1774523271E-17
 47.23140335   0.1775229477E-17
 47.35819626   0.1775929065E-17
 47.48498917   0.1776623276E-17
 47.61177826   0.1777314179E-17
 47.73857117   0.1778002600E-17
 47.86536407   0.1778689780E-17
 47.99215698   0.1779374685E-17
 48.11894989   0.1780056282E-17
 48.24574280   0.1780732296E-17
 48.37253571   0.1781400244E-17
 48.49932861   0.1782057646E-17
 48.62612152   0.1782703467E-17
 48.75291443   0.1783336467E-17
 48.87970734   0.1783958300E-17
 49.00650024   0.1784572275E-17
 49.13329315   0.1785183148E-17
 49.26008606   0.1785796502E-17
 49.38687897   0.1786418335E-17
 49.51366806   0.1787054437E-17
 49.64046097   0.1787710184E-17
 49.76725388   0.1788389300E-17
 49.89404678   0.1789092610E-17
 50.02083969   0.1789821356E-17
 50.14763260   0.1790573057E-17
 50.27442551   0.1791345230E-17
 50.40121841   0.1792134360E-17
 50.52801132   0.1792937346E-17
 50.65480423   0.1793749223E-17
 50.78159714   0.1794566685E-17
 50.90839005   0.1795386834E-17
 51.03518295   0.1796205743E-17
 51.16197586   0.1797021343E-17
 51.28876877   0.1797831980E-17
 51.41555786   0.1798635586E-17
 51.54235077   0.1799430507E-17
 51.66914368   0.1800217362E-17
 51.79593658   0.1800995119E-17
 51.92272949   0.1801764397E-17
 52.04952240   0.1802525610E-17
 52.17631531   0.1803278551E-17
 52.30310822   0.1804025495E-17
 52.42990112   0.1804767062E-17
 52.55669403   0.1805503873E-17
 52.68348694   0.1806237583E-17
 52.81027985   0.1806968603E-17
 52.93707275   0.1807698177E-17
 53.06386566   0.1808427543E-17
 53.19065857   0.1809159391E-17
 53.31744766   0.1809896616E-17
 53.44424057   0.1810642940E-17
 53.57103348   0.1811403532E-17
 53.69782639   0.1812182736E-17
 53.82461929   0.1812984068E-17
 53.95141220   0.1813810628E-17
 54.07820511   0.1814661383E-17
 54.20499802   0.1815531991E-17
 54.33179092   0.1816415626E-17
 54.45858383   0.1817300710E-17
 54.58537674   0.1818172351E-17
 54.71216965   0.1819014421E-17
 54.83896255   0.1819809962E-17
 54.96575546   0.1820541397E-17
 55.09254837   0.1821195903E-17
 55.21933746   0.1821762729E-17
 55.34613037   0.1822237737E-17
 55.47292328   0.1822620515E-17
 55.59971619   0.1822918093E-17
 55.72650909   0.1823142880E-17
 55.85330200   0.1823310797E-17
 55.98009491   0.1823444594E-17
 56.10688782   0.1823567430E-17
 56.23368073   0.1823708464E-17
 56.36047363   0.1823895407E-17
 56.48726654   0.1824160312E-17
 56.61405945   0.1824535025E-17
 56.74085236   0.1825052633E-17
 56.86764526   0.1825745810E-17
 56.99443817   0.1826646817E-17
 57.12122726   0.1827785017E-17
 57.24802017   0.1829185641E-17
 57.37481308   0.1830867919E-17
 57.50160599   0.1832841365E-17
 57.62839890   0.1835102464E-17
 57.75519180   0.1837633223E-17
 57.88198471   0.1840398694E-17
 58.00877762   0.1843342837E-17
 58.13557053   0.1846390584E-17
 58.26236343   0.1849444742E-17
 58.38915634   0.1852390332E-17
 58.51594925   0.1855094799E-17
 58.64274216   0.1857414006E-17
 58.76953506   0.1859196374E-17
 58.89632797   0.1860290113E-17
 59.02311707   0.1860552950E-17
 59.14990997   0.1859858739E-17
 59.27670288   0.1858109872E-17
 59.40349579   0.1855247000E-17
 59.53028870   0.1851257301E-17
 59.65708160   0.1846186064E-17
 59.78387451   0.1840143302E-17
 59.91066742   0.1833309963E-17
 60.03746033   0.1825939164E-17
 60.16425323   0.1818358053E-17
 60.29104614   0.1810960577E-17
 60.41783905   0.1804200030E-17
 60.54463196   0.1798575822E-17
 60.67142487   0.1794614041E-17
 60.79821777   0.1792845115E-17
 60.92500687   0.1793778795E-17
 61.05179977   0.1797872305E-17
 61.17859268   0.1805496842E-17
 61.30538559   0.1816908626E-17
 61.43217850   0.1832209606E-17
 61.55897141   0.1851319133E-17
 61.68576431   0.1873946865E-17
 61.81255722   0.1899568578E-17
 61.93935013   0.1927414579E-17
 62.06614304   0.1956467437E-17
 62.19293594   0.1985470871E-17
 62.31972885   0.2012953947E-17
 62.44652176   0.2037272436E-17
 62.57331467   0.2056665686E-17
 62.70010757   0.2069328374E-17
 62.82689667   0.2073501913E-17
 62.95368958   0.2067572889E-17
 63.08048248   0.2050188655E-17
 63.20727539   0.2020369828E-17
 63.33406830   0.1977630233E-17
 63.46086121   0.1922082366E-17
 63.58765411   0.1854536659E-17
 63.71444702   0.1776572611E-17
 63.84123993   0.1690583568E-17
 63.96803284   0.1599784055E-17
 64.09482574   0.1508173906E-17
 64.22161865   0.1420454814E-17
 64.34841156   0.1341893852E-17
 64.47520447   0.1278135287E-17
 64.60199738   0.1234962870E-17
 64.72879028   0.1218013733E-17
 64.85558319   0.1232457237E-17
 64.98237610   0.1282643112E-17
 65.10916901   0.1371743492E-17
 65.23596191   0.1501394333E-17
 65.36275482   0.1671367955E-17
 65.48954773   0.1879289211E-17
 65.61633301   0.2120424147E-17
 65.74312592   0.2387559851E-17
 65.86991882   0.2670998044E-17
 65.99671173   0.2958676365E-17
 66.12350464   0.3236440100E-17
 66.25029755   0.3488458871E-17
 66.37709045   0.3697799259E-17
 66.50388336   0.3847143410E-17
 66.63067627   0.3919634210E-17
 66.75746918   0.3899822821E-17
 66.88426208   0.3774687351E-17
 67.01105499   0.3534674279E-17
 67.13784790   0.3174709678E-17
 67.26464081   0.2695133727E-17
 67.39143372   0.2102476809E-17
 67.51822662   0.1410037094E-17
 67.64501953   0.6381821469E-18
 67.77181244   -0.1856706405E-18
 67.89860535   -0.1027445899E-17
 68.02539825   -0.1847201635E-17
 68.15219116   -0.2600342758E-17
 68.27898407   -0.3239244035E-17
 68.40577698   -0.3715261042E-17
 68.53256989   -0.3981078840E-17
 68.65936279   -0.3993314910E-17
 68.78615570   -0.3715287098E-17
 68.91294861   -0.3119816939E-17
 69.03974152   -0.2191928741E-17
 69.16653442   -0.9312895644E-18
 69.29332733   0.6457650150E-18
 69.42011261   0.2504788922E-17
 69.54690552   0.4592516687E-17
 69.67369843   0.6837020408E-17
 69.80049133   0.9148841741E-17
 69.92728424   0.1142316574E-16
 70.05407715   0.1354306917E-16
 70.18087006   0.1538379915E-16
 70.30766296   0.1681802280E-16
 70.43445587   0.1772187809E-16
 70.56124878   0.1798162935E-16
 70.68804169   0.1750066518E-16
 70.81483459   0.1620653119E-16
 70.94162750   0.1405761522E-16
 71.06842041   0.1104913534E-16
 71.19521332   0.7218017730E-17
 71.32200623   0.2646275891E-17
 71.44879913   -0.2537450355E-17
 71.57559204   -0.8158525395E-17
 71.70238495   -0.1399932215E-16
 71.82917786   -0.1980476851E-16
 71.95597076   -0.2529043346E-16
 72.08276367   -0.3015306929E-16
 72.20955658   -0.3408335510E-16
 72.33634949   -0.3678049329E-16
 72.46314240   -0.3796808312E-16
 72.58993530   -0.3741066926E-16
 72.71672821   -0.3493019283E-16
 72.84352112   -0.3042149601E-16
 72.97031403   -0.2386598212E-16
 73.09710693   -0.1534255096E-16
 73.22389221   -0.5034916867E-17
 73.35068512   0.6765441574E-17
 73.47747803   0.1966140984E-16
 73.60427094   0.3315783264E-16
 73.73106384   0.4667488698E-16
 73.85785675   0.5956717512E-16
 73.98464966   0.7114821324E-16
 74.11144257   0.8071970539E-16
 74.23823547   0.8760470021E-16
 74.36502838   0.9118326883E-16
 74.49182129   0.9092936408E-16
 74.61861420   0.8644698484E-16
 74.74540710   0.7750383893E-16
 74.87220001   0.6406051947E-16
 74.99899292   0.4629323908E-16
 75.12578583   0.2460825099E-16
 75.25257874   -0.3536039179E-18
 75.37937164   -0.2772359516E-16
 75.50616455   -0.5642385570E-16
 75.63295746   -0.8519855092E-16
 75.75975037   -0.1126573275E-15
 75.88654327   -0.1373299811E-15
 76.01333618   -0.1577309814E-15
 76.14012909   -0.1724316220E-15
 76.26692200   -0.1801368690E-15
 76.39371490   -0.1797636980E-15
 76.52050781   -0.1705171158E-15
 76.64730072   -0.1519597886E-15
 76.77409363   -0.1240710568E-15
 76.90088654   -0.8729149654E-16
 77.02767181   -0.4254899280E-16
 77.15446472   0.8736763521E-17
 77.28125763   0.6467374485E-16
 77.40805054   0.1229427162E-15
 77.53484344   0.1808684805E-15
 77.66163635   0.2355160816E-15
 77.78842926   0.2838101680E-15
 77.91522217   0.3226737867E-15
 78.04201508   0.3491817357E-15
 78.16880798   0.3607222684E-15
 78.29560089   0.3551602266E-15
 78.42239380   0.3309934237E-15
 78.54918671   0.2874941790E-15
 78.67597961   0.2248267376E-15
 78.80277252   0.1441335351E-15
 78.92956543   0.4758139752E-16
 79.05635834   -0.6163748908E-16
 79.18315125   -0.1793552958E-15
 79.30994415   -0.3005313660E-15
 79.43673706   -0.4194086815E-15
 79.56352997   -0.5297216468E-15
 79.69032288   -0.6249507023E-15
 79.81711578   -0.6986153578E-15
 79.94390869   -0.7445964884E-15
 80.07070160   -0.7574740362E-15
 80.19749451   -0.7328666173E-15
 80.32428741   -0.6677552476E-15
 80.45108032   -0.5607758863E-15
 80.57787323   -0.4124622966E-15
 80.70465851   -0.2254229694E-15
 80.83145142   -0.4437154797E-17
 80.95824432   0.2435425394E-15
 81.08503723   0.5094908472E-15
 81.21183014   0.7825187887E-15
 81.33862305   0.1050192211E-14
 81.46541595   0.1298956153E-14
 81.59220886   0.1514654152E-14
 81.71900177   0.1683128793E-14
 81.84579468   0.1790884301E-14
 81.97258759   0.1825783329E-14
 82.09938049   0.1777753808E-14
 82.22617340   0.1639469009E-14
 82.35296631   0.1406971065E-14
 82.47975922   0.1080202906E-14
 82.60655212   0.6634148920E-15
 82.73334503   0.1654160849E-15
 82.86013794   -0.4003551782E-15
 82.98693085   -0.1015962022E-14
 83.11372375   -0.1659314144E-14
 83.24051666   -0.2304731545E-14
 83.36730957   -0.2923720988E-14
 83.49410248   -0.3485953295E-14
 83.62089539   -0.3960411812E-14
 83.74768829   -0.4316681493E-14
 83.87448120   -0.4526332735E-14
 84.00127411   -0.4564347151E-14
 84.12806702   -0.4410528932E-14
 84.25485992   -0.4050836814E-14
 84.38165283   -0.3478575850E-14
 84.50843811   -0.2695381658E-14
 84.63523102   -0.1711938925E-14
 84.76202393   -0.5483831590E-15
 84.88881683   0.7656638389E-15
 85.01560974   0.2191452535E-14
 85.14240265   0.3681876039E-14
 85.26919556   0.5182658332E-14
 85.39598846   0.6633937055E-14
 85.52278137   0.7972219042E-14
 85.64957428   0.9132644016E-14
 85.77636719   0.1005149519E-13
 85.90316010   0.1066887464E-13
 86.02995300   0.1093143960E-13
 86.15674591   0.1079510203E-13
 86.28353882   0.1022756793E-13
 86.41033173   0.9210609163E-14
 86.53712463   0.7741957371E-14
 86.66391754   0.5836703293E-14
 86.79071045   0.3528128548E-14
 86.91750336   0.8678740341E-15
 87.04429626   -0.2074593328E-14
 87.17108917   -0.5213253586E-14
 87.29788208   -0.8447545133E-14
 87.42467499   -0.1166508872E-13
 87.55146790   -0.1474506654E-13
 87.67826080   -0.1756216937E-13
 87.80505371   -0.1999099738E-13
 87.93184662   -0.2191076537E-13
 88.05863953   -0.2321018337E-13
 88.18543243   -0.2379227796E-13
 88.31221771   -0.2357903572E-13
 88.43901062   -0.2251561974E-13
 88.56580353   -0.2057400338E-13
 88.69259644   -0.1775585531E-13
 88.81938934   -0.1409447662E-13
 88.94618225   -0.9655720742E-14
 89.07297516   -0.4537745234E-14
 89.19976807   0.1130433654E-14
 89.32656097   0.7191602796E-14
 89.45335388   0.1346421296E-13
 89.58014679   0.1974736021E-13
 89.70693970   0.2582674438E-13
 89.83373260   0.3148148043E-13
 89.96052551   0.3649152446E-13
 90.08731842   0.4064547567E-13
 90.21411133   0.4374852328E-13
 90.34090424   0.4563020019E-13
 90.46769714   0.4615169805E-13
 90.59449005   0.4521244354E-13
 90.72128296   0.4275562109E-13
 90.84807587   0.3877246221E-13
 90.97486877   0.3330502039E-13
 91.10166168   0.2644728410E-13
 91.22845459   0.1834452288E-13
 91.35524750   0.9190787745E-14
 91.48204041   -0.7754297582E-15
 91.60883331   -0.1127727384E-13
 91.73562622   -0.2200723904E-13
 91.86241913   -0.3263626755E-13
 91.98921204   -0.4282399698E-13
 92.11599731   -0.5222982691E-13
 92.24279022   -0.6052441399E-13
 92.36958313   -0.6740124409E-13
 92.49637604   -0.7258780301E-13
 92.62316895   -0.7585597460E-13
 92.74996185   -0.7703127687E-13
 92.87675476   -0.7600047843E-13
 93.00354767   -0.7271729741E-13
 93.13034058   -0.6720600638E-13
 93.25713348   -0.5956252337E-13
 93.38392639   -0.4995308027E-13
 93.51071930   -0.3861031978E-13
 93.63751221   -0.2582691548E-13
 93.76430511   -0.1194687880E-13
 93.89109802   0.2645186909E-14
 94.01789093   0.1753655340E-13
 94.14468384   0.3230011067E-13
 94.27147675   0.4650887152E-13
 94.39826965   0.5975076797E-13
 94.52506256   0.7164310378E-13
 94.65185547   0.8184606964E-13
 94.77864838   0.9007483209E-13
 94.90544128   0.9610958269E-13
 95.03223419   0.9980316812E-13
 95.15902710   0.1010858538E-12
 95.28582001   0.9996697074E-13
 95.41261292   0.9653336344E-13
 95.53940582   0.9094448420E-13
 95.66619873   0.8342443761E-13
 95.79299164   0.7425110467E-13
 95.91977692   0.6374282070E-13
 96.04656982   0.5224318970E-13
 96.17336273   0.4010461464E-13
 96.30015564   0.2767132125E-13
 96.42694855   0.1526273242E-13
 96.55374146   0.3157998866E-14
 96.68053436   -0.8417570331E-14
 96.80732727   -0.1930320832E-13
 96.93412018   -0.2941000714E-13
 97.06091309   -0.3872419150E-13
 97.18770599   -0.4730590919E-13
 97.31449890   -0.5528345861E-13
 97.44129181   -0.6284277704E-13
 97.56808472   -0.7021257355E-13
 97.69487762   -0.7764548417E-13
 97.82167053   -0.8539601182E-13
 97.94846344   -0.9369620287E-13
 98.07525635   -0.1027300871E-12
 98.20204926   -0.1126083818E-12
 98.32884216   -0.1233445990E-12
 98.45563507   -0.1348342282E-12
 98.58242798   -0.1468383385E-12
 98.70922089   -0.1589729867E-12
 98.83601379   -0.1707055992E-12
 98.96280670   -0.1813594441E-12
 99.08959961   -0.1901266552E-12
 99.21639252   -0.1960904448E-12
 99.34318542   -0.1982560980E-12
 99.46997833   -0.1955905869E-12
 99.59677124   -0.1870695981E-12
 99.72355652   -0.1717306717E-12
 99.85034943   -0.1487305288E-12
 99.97714233   -0.1174046076E-12
 100.1039352   -0.7732587492E-13
 100.2307281   -0.2836035883E-13
 100.3575211   0.2928345026E-13
 100.4843140   0.9501443686E-13
 100.6111069   0.1678306203E-12
 100.7378998   0.2463054446E-12
 100.8646927   0.3285906974E-12
 100.9914856   0.4124377435E-12
 101.1182785   0.4952379110E-12
 101.2450714   0.5740826651E-12
 101.3718643   0.6458420495E-12
 101.4986572   0.7072613979E-12
 101.6254501   0.7550720574E-12
 101.7522430   0.7861149882E-12
 101.8790359   0.7974715723E-12
 102.0058289   0.7865974040E-12
 102.1326218   0.7514549421E-12
 102.2594147   0.6906372718E-12
 102.3862076   0.6034796144E-12
 102.5130005   0.4901512681E-12
 102.6397934   0.3517233976E-12
 102.7665863   0.1902079839E-12
 102.8933792   0.8564021481E-14
 103.0201721   -0.1893318808E-12
 103.1469650   -0.3987518594E-12
 103.2737579   -0.6142202632E-12
 103.4005508   -0.8296528612E-12
 103.5273361   -0.1038528421E-11
 103.6541290   -0.1234088352E-11
 103.7809219   -0.1409558234E-11
 103.9077148   -0.1558383847E-11
 104.0345078   -0.1674472627E-11
 104.1613007   -0.1752432834E-11
 104.2880936   -0.1787799184E-11
 104.4148865   -0.1777235368E-11
 104.5416794   -0.1718704497E-11
 104.6684723   -0.1611599417E-11
 104.7952652   -0.1456824136E-11
 104.9220581   -0.1256821361E-11
 105.0488510   -0.1015542793E-11
 105.1756439   -0.7383596230E-12
 105.3024368   -0.4319150831E-12
 105.4292297   -0.1039223571E-12
 105.5560226   0.2370866903E-12
 105.6828156   0.5820523642E-12
 105.8096085   0.9217074803E-12
 105.9364014   0.1246914356E-11
 106.0631943   0.1549004740E-11
 106.1899872   0.1820107216E-11
 106.3167801   0.2053447256E-11
 106.4435730   0.2243605909E-11
 106.5703659   0.2386721897E-11
 106.6971588   0.2480628983E-11
 106.8239517   0.2524914305E-11
 106.9507446   0.2520897336E-11
 107.0775375   0.2471523854E-11
 107.2043304   0.2381175552E-11
 107.3311157   0.2255405715E-11
 107.4579086   0.2100604196E-11
 107.5847015   0.1923610143E-11
 107.7114944   0.1731290025E-11
 107.8382874   0.1530096037E-11
 107.9650803   0.1325633722E-11
 108.0918732   0.1122258211E-11
 108.2186661   0.9227239198E-12
 108.3454590   0.7279130098E-12
 108.4722519   0.5366590961E-12
 108.5990448   0.3456888909E-12
 108.7258377   0.1496916875E-12
 108.8526306   -0.5847376077E-13
 108.9794235   -0.2874327837E-12
 109.1062164   -0.5468150347E-12
 109.2330093   -0.8466513081E-12
 109.3598022   -0.1196667114E-11
 109.4865952   -0.1605499262E-11
 109.6133881   -0.2079865577E-11
 109.7401810   -0.2623726757E-11
 109.8669739   -0.3237481247E-11
 109.9937668   -0.3917235893E-11
 110.1205597   -0.4654198034E-11
 110.2473526   -0.5434231624E-11
 110.3741455   -0.6237616760E-11
 110.5009384   -0.7039047730E-11
 110.6277313   -0.7807896690E-11
 110.7545242   -0.8508761404E-11
 110.8813171   -0.9102303980E-11
 111.0081024   -0.9546372373E-11
 111.1348953   -0.9797394666E-11
 111.2616882   -0.9812014048E-11
 111.3884811   -0.9548904202E-11
 111.5152740   -0.8970742552E-11
 111.6420670   -0.8046239022E-11
 111.7688599   -0.6752170871E-11
 111.8956528   -0.5075326444E-11
 112.0224457   -0.3014276979E-11
 112.1492386   -0.5808912379E-12
 112.2760315   0.2198497244E-11
 112.4028244   0.5282340971E-11
 112.5296173   0.8613621101E-11
 112.6564102   0.1212013389E-10
 112.7832031   0.1571535957E-10
 112.9099960   0.1929993318E-10
 113.0367889   0.2276371452E-10
 113.1635818   0.2598843536E-10