 -4.500000000   0.1089711609E-16
 -4.373207569   0.1089711526E-16
 -4.246414661   0.1089711361E-16
 -4.119622231   0.1089711113E-16
 -3.992829323   0.1089710947E-16
 -3.866036654   0.1089710864E-16
 -3.739243984   0.1089710947E-16
 -3.612451553   0.1089711030E-16
 -3.485658884   0.1089711195E-16
 -3.358866215   0.1089711444E-16
 -3.232073545   0.1089711609E-16
 -3.105280876   0.1089711774E-16
 -2.978488207   0.1089711940E-16
 -2.851695538   0.1089712105E-16
 -2.724902868   0.1089712271E-16
 -2.598110199   0.1089712436E-16
 -2.471317530   0.1089712684E-16
 -2.344524860   0.1089712767E-16
 -2.217732191   0.1089712932E-16
 -2.090939522   0.1089713015E-16
 -1.964146972   0.1089713015E-16
 -1.837354302   0.1089713098E-16
 -1.710561633   0.1089713346E-16
 -1.583768964   0.1089713677E-16
 -1.456976295   0.1089714256E-16
 -1.330183744   0.1089714835E-16
 -1.203391075   0.1089715497E-16
 -1.076598406   0.1089716076E-16
 -0.9498057365   0.1089716572E-16
 -0.8230130672   0.1089716986E-16
 -0.6962204576   0.1089717317E-16
 -0.5694277883   0.1089717647E-16
 -0.4426351190   0.1089717978E-16
 -0.3158424795   0.1089718309E-16
 -0.1890498251   0.1089718805E-16
 -0.6225717068E-01   0.1089719384E-16
 0.6453548372E-01   0.1089719963E-16
 0.1913281381   0.1089720543E-16
 0.3181207776   0.1089721039E-16
 0.4449134469   0.1089721618E-16
 0.5717061162   0.1089722362E-16
 0.6984987259   0.1089723272E-16
 0.8252913952   0.1089724348E-16
 0.9520840645   0.1089725506E-16
 1.078876734   0.1089726746E-16
 1.205669403   0.1089727822E-16
 1.332461953   0.1089728732E-16
 1.459254622   0.1089729476E-16
 1.586047292   0.1089729972E-16
 1.712839961   0.1089730551E-16
 1.839632630   0.1089731130E-16
 1.966425300   0.1089731958E-16
 2.093217850   0.1089732702E-16
 2.220010519   0.1089733364E-16
 2.346803188   0.1089733860E-16
 2.473595858   0.1089734191E-16
 2.600388527   0.1089734439E-16
 2.727181196   0.1089734770E-16
 2.853973866   0.1089735266E-16
 2.980766535   0.1089736094E-16
 3.107559204   0.1089737086E-16
 3.234351873   0.1089738161E-16
 3.361144543   0.1089739154E-16
 3.487936974   0.1089739981E-16
 3.614729643   0.1089740478E-16
 3.741522312   0.1089740643E-16
 3.868314981   0.1089740560E-16
 3.995107651   0.1089740229E-16
 4.121900558   0.1089739981E-16
 4.248692989   0.1089739733E-16
 4.375485420   0.1089739402E-16
 4.502278328   0.1089738906E-16
 4.629070759   0.1089738244E-16
 4.755863667   0.1089737334E-16
 4.882656097   0.1089736342E-16
 5.009449005   0.1089735184E-16
 5.136241436   0.1089734026E-16
 5.263034344   0.1089733033E-16
 5.389826775   0.1089732206E-16
 5.516619682   0.1089731627E-16
 5.643412113   0.1089731213E-16
 5.770205021   0.1089730800E-16
 5.896997452   0.1089730469E-16
 6.023790359   0.1089729972E-16
 6.150582790   0.1089729476E-16
 6.277375221   0.1089729228E-16
 6.404168129   0.1089729145E-16
 6.530960560   0.1089729393E-16
 6.657753468   0.1089729972E-16
 6.784545898   0.1089730800E-16
 6.911338806   0.1089731792E-16
 7.038131237   0.1089732785E-16
 7.164924145   0.1089733777E-16
 7.291716576   0.1089734770E-16
 7.418509483   0.1089735845E-16
 7.545301914   0.1089737086E-16
 7.672094822   0.1089738492E-16
 7.798887253   0.1089740064E-16
 7.925679684   0.1089741801E-16
 8.052472115   0.1089743538E-16
 8.179265022   0.1089745192E-16
 8.306057930   0.1089746847E-16
 8.432850838   0.1089748418E-16
 8.559642792   0.1089749990E-16
 8.686435699   0.1089751562E-16
 8.813228607   0.1089753299E-16
 8.940021515   0.1089755119E-16
 9.066813469   0.1089757104E-16
 9.193606377   0.1089759255E-16
 9.320399284   0.1089761240E-16
 9.447192192   0.1089763142E-16
 9.573984146   0.1089764879E-16
 9.700777054   0.1089766451E-16
 9.827569962   0.1089768023E-16
 9.954361916   0.1089769512E-16
 10.08115482   0.1089771166E-16
 10.20794773   0.1089772986E-16
 10.33474064   0.1089775136E-16
 10.46153259   0.1089777453E-16
 10.58832550   0.1089779934E-16
 10.71511841   0.1089782664E-16
 10.84191132   0.1089785642E-16
 10.96870327   0.1089788950E-16
 11.09549618   0.1089792673E-16
 11.22228909   0.1089796726E-16
 11.34908199   0.1089801193E-16
 11.47587395   0.1089805825E-16
 11.60266685   0.1089810705E-16
 11.72945976   0.1089815337E-16
 11.85625172   0.1089819721E-16
 11.98304462   0.1089823361E-16
 12.10983753   0.1089826339E-16
 12.23663044   0.1089828407E-16
 12.36342239   0.1089829565E-16
 12.49021530   0.1089829896E-16
 12.61700821   0.1089829399E-16
 12.74380112   0.1089827993E-16
 12.87059307   0.1089825843E-16
 12.99738598   0.1089823030E-16
 13.12417889   0.1089819721E-16
 13.25097084   0.1089816330E-16
 13.37776375   0.1089813104E-16
 13.50455666   0.1089810540E-16
 13.63134956   0.1089809134E-16
 13.75814152   0.1089809299E-16
 13.88493443   0.1089811284E-16
 14.01172733   0.1089815007E-16
 14.13852024   0.1089820631E-16
 14.26531219   0.1089827993E-16
 14.39210510   0.1089836927E-16
 14.51889801   0.1089847101E-16
 14.64569092   0.1089858185E-16
 14.77248287   0.1089869683E-16
 14.89927578   0.1089881181E-16
 15.02606869   0.1089891852E-16
 15.15286064   0.1089901116E-16
 15.27965355   0.1089907816E-16
 15.40644646   0.1089911208E-16
 15.53323936   0.1089910380E-16
 15.66003132   0.1089904838E-16
 15.78682423   0.1089893920E-16
 15.91361713   0.1089877459E-16
 16.04040909   0.1089855208E-16
 16.16720200   0.1089827166E-16
 16.29399490   0.1089793086E-16
 16.42078781   0.1089753051E-16
 16.54758072   0.1089707059E-16
 16.67437363   0.1089655278E-16
 16.80116463   0.1089597872E-16
 16.92795753   0.1089535585E-16
 17.05475044   0.1089469080E-16
 17.18154335   0.1089398935E-16
 17.30833626   0.1089326143E-16
 17.43512917   0.1089251283E-16
 17.56192207   0.1089174851E-16
 17.68871498   0.1089097427E-16
 17.81550598   0.1089019342E-16
 17.94229889   0.1088941007E-16
 18.06909180   0.1088862756E-16
 18.19588470   0.1088785001E-16
 18.32267761   0.1088708073E-16
 18.44947052   0.1088632304E-16
 18.57626343   0.1088557692E-16
 18.70305443   0.1088484238E-16
 18.82984734   0.1088411695E-16
 18.95664024   0.1088339978E-16
 19.08343315   0.1088268510E-16
 19.21022606   0.1088197372E-16
 19.33701897   0.1088126483E-16
 19.46381187   0.1088055924E-16
 19.59060478   0.1087985697E-16
 19.71739578   0.1087916048E-16
 19.84418869   0.1087846978E-16
 19.97098160   0.1087778571E-16
 20.09777451   0.1087710824E-16
 20.22456741   0.1087643575E-16
 20.35136032   0.1087576987E-16
 20.47815323   0.1087511143E-16
 20.60494423   0.1087446209E-16
 20.73173714   0.1087382351E-16
 20.85853004   0.1087319733E-16
 20.98532295   0.1087258439E-16
 21.11211586   0.1087198469E-16
 21.23890877   0.1087139822E-16
 21.36570168   0.1087082167E-16
 21.49249458   0.1087025505E-16
 21.61928558   0.1086969671E-16
 21.74607849   0.1086914663E-16
 21.87287140   0.1086860483E-16
 21.99966431   0.1086807130E-16
 22.12645721   0.1086754356E-16
 22.25325012   0.1086702078E-16
 22.38004303   0.1086649883E-16
 22.50683403   0.1086597357E-16
 22.63362694   0.1086544334E-16
 22.76041985   0.1086490568E-16
 22.88721275   0.1086435891E-16
 23.01400566   0.1086380222E-16
 23.14079857   0.1086323394E-16
 23.26759148   0.1086265244E-16
 23.39438438   0.1086205604E-16
 23.52117538   0.1086144227E-16
 23.64796829   0.1086080782E-16
 23.77476120   0.1086015022E-16
 23.90155411   0.1085946779E-16
 24.02834702   0.1085875972E-16
 24.15513992   0.1085802932E-16
 24.28193283   0.1085727659E-16
 24.40872383   0.1085650235E-16
 24.53551674   0.1085570908E-16
 24.66230965   0.1085489845E-16
 24.78910255   0.1085406961E-16
 24.91589546   0.1085322423E-16
 25.04268837   0.1085236314E-16
 25.16948128   0.1085148798E-16
 25.29627419   0.1085060207E-16
 25.42306519   0.1084970954E-16
 25.54985809   0.1084881205E-16
 25.67665100   0.1084791373E-16
 25.80344391   0.1084701541E-16
 25.93023682   0.1084611792E-16
 26.05702972   0.1084522209E-16
 26.18382263   0.1084432790E-16
 26.31061363   0.1084343703E-16
 26.43740654   0.1084254947E-16
 26.56419945   0.1084167017E-16
 26.69099236   0.1084079915E-16
 26.81778526   0.1083993806E-16
 26.94457817   0.1083908854E-16
 27.07137108   0.1083824895E-16
 27.19816399   0.1083741681E-16
 27.32495499   0.1083659128E-16
 27.45174789   0.1083576824E-16
 27.57854080   0.1083494933E-16
 27.70533371   0.1083413208E-16
 27.83212662   0.1083331813E-16
 27.95891953   0.1083250832E-16
 28.08571243   0.1083170017E-16
 28.21250343   0.1083089366E-16
 28.33929634   0.1083008799E-16
 28.46608925   0.1082928066E-16
 28.59288216   0.1082847251E-16
 28.71967506   0.1082766518E-16
 28.84646797   0.1082685950E-16
 28.97326088   0.1082606045E-16
 29.10005379   0.1082527297E-16
 29.22684479   0.1082450039E-16
 29.35363770   0.1082374600E-16
 29.48043060   0.1082301311E-16
 29.60722351   0.1082230174E-16
 29.73401642   0.1082161352E-16
 29.86080933   0.1082094930E-16
 29.98760223   0.1082030906E-16
 30.11439323   0.1081969612E-16
 30.24118614   0.1081910882E-16
 30.36797905   0.1081854634E-16
 30.49477196   0.1081800536E-16
 30.62156487   0.1081748258E-16
 30.74835777   0.1081697304E-16
 30.87515068   0.1081647012E-16
 31.00194168   0.1081597215E-16
 31.12873459   0.1081547502E-16
 31.25552750   0.1081497623E-16
 31.38232040   0.1081447496E-16
 31.50911331   0.1081396789E-16
 31.63590622   0.1081345173E-16
 31.76269913   0.1081292317E-16
 31.88949203   0.1081237723E-16
 32.01628494   0.1081181226E-16
 32.14307785   0.1081122496E-16
 32.26987076   0.1081061450E-16
 32.39666367   0.1080998171E-16
 32.52345276   0.1080932741E-16
 32.65024567   0.1080865409E-16
 32.77703857   0.1080796091E-16
 32.90383148   0.1080724871E-16
 33.03062439   0.1080651748E-16
 33.15741730   0.1080576723E-16
 33.28421021   0.1080499877E-16
 33.41100311   0.1080421543E-16
 33.53779602   0.1080341803E-16
 33.66458893   0.1080261153E-16
 33.79138184   0.1080180007E-16
 33.91817474   0.1080098529E-16
 34.04496765   0.1080017052E-16
 34.17176056   0.1079935906E-16
 34.29855347   0.1079855090E-16
 34.42534256   0.1079774854E-16
 34.55213547   0.1079695527E-16
 34.67892838   0.1079617359E-16
 34.80572128   0.1079540762E-16
 34.93251419   0.1079466233E-16
 35.05930710   0.1079394185E-16
 35.18610001   0.1079324619E-16
 35.31289291   0.1079257783E-16
 35.43968582   0.1079193428E-16
 35.56647873   0.1079131142E-16
 35.69327164   0.1079070675E-16
 35.82006454   0.1079011614E-16
 35.94685745   0.1078953711E-16
 36.07365036   0.1078896471E-16
 36.20044327   0.1078839726E-16
 36.32723236   0.1078783147E-16
 36.45402527   0.1078726320E-16
 36.58081818   0.1078668665E-16
 36.70761108   0.1078610018E-16
 36.83440399   0.1078549716E-16
 36.96119690   0.1078487678E-16
 37.08798981   0.1078423820E-16
 37.21478271   0.1078358555E-16
 37.34157562   0.1078291967E-16
 37.46836853   0.1078224304E-16
 37.59516144   0.1078156061E-16
 37.72195435   0.1078087157E-16
 37.84874725   0.1078017757E-16
 37.97554016   0.1077947943E-16
 38.10232925   0.1077877715E-16
 38.22912216   0.1077807239E-16
 38.35591507   0.1077736681E-16
 38.48270798   0.1077666205E-16
 38.60950089   0.1077595812E-16
 38.73629379   0.1077525419E-16
 38.86308670   0.1077455108E-16
 38.98987961   0.1077384798E-16
 39.11667252   0.1077314405E-16
 39.24346542   0.1077243846E-16
 39.37025833   0.1077173123E-16
 39.49705124   0.1077102399E-16
 39.62384415   0.1077031675E-16
 39.75063705   0.1076961199E-16
 39.87742996   0.1076890971E-16
 40.00421906   0.1076821240E-16
 40.13101196   0.1076751839E-16
 40.25780487   0.1076683101E-16
 40.38459778   0.1076614941E-16
 40.51139069   0.1076547609E-16
 40.63818359   0.1076481020E-16
 40.76497650   0.1076415425E-16
 40.89176941   0.1076350740E-16
 41.01856232   0.1076287129E-16
 41.14535522   0.1076224346E-16
 41.27214813   0.1076162225E-16
 41.39894104   0.1076100600E-16
 41.52573395   0.1076039223E-16
 41.65252686   0.1075977929E-16
 41.77931976   0.1075916801E-16
 41.90610886   0.1075855837E-16
 42.03290176   0.1075795205E-16
 42.15969467   0.1075734986E-16
 42.28648758   0.1075675181E-16
 42.41328049   0.1075615541E-16
 42.54007339   0.1075556233E-16
 42.66686630   0.1075496841E-16
 42.79365921   0.1075437449E-16
 42.92045212   0.1075377727E-16
 43.04724503   0.1075317756E-16
 43.17403793   0.1075257289E-16
 43.30083084   0.1075196078E-16
 43.42762375   0.1075133957E-16
 43.55441666   0.1075070595E-16
 43.68120956   0.1075005661E-16
 43.80799866   0.1074938908E-16
 43.93479156   0.1074870086E-16
 44.06158447   0.1074799031E-16
 44.18837738   0.1074726074E-16
 44.31517029   0.1074651214E-16
 44.44196320   0.1074574865E-16
 44.56875610   0.1074497193E-16
 44.69554901   0.1074418611E-16
 44.82234192   0.1074339367E-16
 44.94913483   0.1074259792E-16
 45.07592773   0.1074180218E-16
 45.20272064   0.1074100974E-16
 45.32951355   0.1074022557E-16
 45.45630646   0.1073945464E-16
 45.58309937   0.1073870025E-16
 45.70988846   0.1073796571E-16
 45.83668137   0.1073725351E-16
 45.96347427   0.1073656447E-16
 46.09026718   0.1073589693E-16
 46.21706009   0.1073525091E-16
 46.34385300   0.1073462473E-16
 46.47064590   0.1073401593E-16
 46.59743881   0.1073342366E-16
 46.72423172   0.1073284381E-16
 46.85102463   0.1073227223E-16
 46.97781754   0.1073170644E-16
 47.10461044   0.1073113899E-16
 47.23140335   0.1073056658E-16
 47.35819626   0.1072998507E-16
 47.48498917   0.1072938950E-16
 47.61177826   0.1072877822E-16
 47.73857117   0.1072815121E-16
 47.86536407   0.1072750767E-16
 47.99215698   0.1072684758E-16
 48.11894989   0.1072617177E-16
 48.24574280   0.1072548273E-16
 48.37253571   0.1072478376E-16
 48.49932861   0.1072407900E-16
 48.62612152   0.1072337507E-16
 48.75291443   0.1072267693E-16
 48.87970734   0.1072198955E-16
 49.00650024   0.1072131705E-16
 49.13329315   0.1072066275E-16
 49.26008606   0.1072002747E-16
 49.38687897   0.1071941040E-16
 49.51366806   0.1071880821E-16
 49.64046097   0.1071821843E-16
 49.76725388   0.1071763692E-16
 49.89404678   0.1071705707E-16
 50.02083969   0.1071647225E-16
 50.14763260   0.1071587751E-16
 50.27442551   0.1071526457E-16
 50.40121841   0.1071462598E-16
 50.52801132   0.1071395597E-16
 50.65480423   0.1071324956E-16
 50.78159714   0.1071250178E-16
 50.90839005   0.1071171183E-16
 51.03518295   0.1071087886E-16
 51.16197586   0.1071000701E-16
 51.28876877   0.1070909794E-16
 51.41555786   0.1070815660E-16
 51.54235077   0.1070718963E-16
 51.66914368   0.1070620611E-16
 51.79593658   0.1070521515E-16
 51.92272949   0.1070422998E-16
 52.04952240   0.1070326383E-16
 52.17631531   0.1070232994E-16
 52.30310822   0.1070144238E-16
 52.42990112   0.1070061520E-16
 52.55669403   0.1069985750E-16
 52.68348694   0.1069917673E-16
 52.81027985   0.1069857868E-16
 52.93707275   0.1069806169E-16
 53.06386566   0.1069762577E-16
 53.19065857   0.1069726346E-16
 53.31744766   0.1069696237E-16
 53.44424057   0.1069670843E-16
 53.57103348   0.1069648012E-16
 53.69782639   0.1069625430E-16
 53.82461929   0.1069600201E-16
 53.95141220   0.1069569430E-16
 54.07820511   0.1069529891E-16
 54.20499802   0.1069478688E-16
 54.33179092   0.1069413258E-16
 54.45858383   0.1069331202E-16
 54.58537674   0.1069230948E-16
 54.71216965   0.1069111172E-16
 54.83896255   0.1068971627E-16
 54.96575546   0.1068812973E-16
 55.09254837   0.1068636949E-16
 55.21933746   0.1068446946E-16
 55.34613037   0.1068247513E-16
 55.47292328   0.1068044854E-16
 55.59971619   0.1067846248E-16
 55.72650909   0.1067659966E-16
 55.85330200   0.1067494944E-16
 55.98009491   0.1067360362E-16
 56.10688782   0.1067265815E-16
 56.23368073   0.1067220155E-16
 56.36047363   0.1067231818E-16
 56.48726654   0.1067307505E-16
 56.61405945   0.1067452179E-16
 56.74085236   0.1067667990E-16
 56.86764526   0.1067954112E-16
 56.99443817   0.1068306077E-16
 57.12122726   0.1068714953E-16
 57.24802017   0.1069167917E-16
 57.37481308   0.1069647433E-16
 57.50160599   0.1070132161E-16
 57.62839890   0.1070596954E-16
 57.75519180   0.1071013274E-16
 57.88198471   0.1071350515E-16
 58.00877762   0.1071576832E-16
 58.13557053   0.1071660543E-16
 58.26236343   0.1071571869E-16
 58.38915634   0.1071284672E-16
 58.51594925   0.1070778603E-16
 58.64274216   0.1070041502E-16
 58.76953506   0.1069070723E-16
 58.89632797   0.1067875612E-16
 59.02311707   0.1066478008E-16
 59.14990997   0.1064913975E-16
 59.27670288   0.1063233475E-16
 59.40349579   0.1061500945E-16
 59.53028870   0.1059793396E-16
 59.65708160   0.1058199584E-16
 59.78387451   0.1056817035E-16
 59.91066742   0.1055748317E-16
 60.03746033   0.1055096747E-16
 60.16425323   0.1054961255E-16
 60.29104614   0.1055429936E-16
 60.41783905   0.1056574423E-16
 60.54463196   0.1058443189E-16
 60.67142487   0.1061055426E-16
 60.79821777   0.1064395664E-16
 60.92500687   0.1068408978E-16
 61.05179977   0.1072997432E-16
 61.17859268   0.1078018336E-16
 61.30538559   0.1083284746E-16
 61.43217850   0.1088567701E-16
 61.55897141   0.1093601426E-16
 61.68576431   0.1098091197E-16
 61.81255722   0.1101724339E-16
 61.93935013   0.1104183216E-16
 62.06614304   0.1105161027E-16
 62.19293594   0.1104379506E-16
 62.31972885   0.1101607211E-16
 62.44652176   0.1096678455E-16
 62.57331467   0.1089512093E-16
 62.70010757   0.1080127977E-16
 62.82689667   0.1068661269E-16
 62.95368958   0.1055373191E-16
 63.08048248   0.1040656242E-16
 63.20727539   0.1025033943E-16
 63.33406830   0.1009153895E-16
 63.46086121   0.9937725545E-17
 63.58765411   0.9797329834E-17
 63.71444702   0.9679346582E-17
 63.84123993   0.9592955839E-17
 63.96803284   0.9547082884E-17
 64.09482574   0.9549911014E-17
 64.22161865   0.9608360423E-17
 64.34841156   0.9727551359E-17
 64.47520447   0.9910289619E-17
 64.60199738   0.1015659175E-16
 64.72879028   0.1046328633E-16
 64.85558319   0.1082372118E-16
 64.98237610   0.1122760618E-16
 65.10916901   0.1166101987E-16
 65.23596191   0.1210659807E-16
 65.36275482   0.1254393674E-16
 65.48954773   0.1295018581E-16
 65.61633301   0.1330086738E-16
 65.74312592   0.1357087237E-16
 65.86991882   0.1373564178E-16
 65.99671173   0.1377246538E-16
 66.12350464   0.1366187216E-16
 66.25029755   0.1338904483E-16
 66.37709045   0.1294519295E-16
 66.50388336   0.1232880195E-16
 66.63067627   0.1154668862E-16
 66.75746918   0.1061477288E-16
 66.88426208   0.9558500458E-17
 67.01105499   0.8412842902E-17
 67.13784790   0.7221819452E-17
 67.26464081   0.6037501542E-17
 67.39143372   0.4918495332E-17
 67.51822662   0.3927893608E-17
 67.64501953   0.3130742961E-17
 67.77181244   0.2591095499E-17
 67.89860535   0.2368723501E-17
 68.02539825   0.2515634500E-17
 68.15219116   0.3072526817E-17
 68.27898407   0.4065360273E-17
 68.40577698   0.5502220560E-17
 68.53256989   0.7370680529E-17
 68.65936279   0.9635843499E-17
 68.78615570   0.1223924310E-16
 68.91294861   0.1509877918E-16
 69.03974152   0.1810979271E-16
 69.16653442   0.2114739017E-16
 69.29332733   0.2407001615E-16
 69.42011261   0.2672429977E-16
 69.54690552   0.2895103027E-16
 69.67369843   0.3059214337E-16
 69.80049133   0.3149847855E-16
 69.92728424   0.3153801448E-16
 70.05407715   0.3060423344E-16
 70.18087006   0.2862424099E-16
 70.30766296   0.2556615923E-16
 70.43445587   0.2144544486E-16
 70.56124878   0.1632959747E-16
 70.68804169   0.1034092398E-16
 70.81483459   0.3656965075E-17
 70.94162750   -0.3491680740E-17
 71.06842041   -0.1082631522E-16
 71.19521332   -0.1802796470E-16
 71.32200623   -0.2474798000E-16
 71.44879913   -0.3062123366E-16
 71.57559204   -0.3528152291E-16
 71.70238495   -0.3837870550E-16
 71.82917786   -0.3959690100E-16
 71.95597076   -0.3867301636E-16
 72.08276367   -0.3541472546E-16
 72.20955658   -0.2971698298E-16
 72.33634949   -0.2157613443E-16
 72.46314240   -0.1110069268E-16
 72.58993530   0.1482051232E-17
 72.71672821   0.1582438036E-16
 72.84352112   0.3146197673E-16
 72.97031403   0.4782363240E-16
 73.09710693   0.6424695936E-16
 73.22389221   0.7999991929E-16
 73.35068512   0.9430778808E-16
 73.47747803   0.1063846978E-15
 73.60427094   0.1154687622E-15
 73.73106384   0.1208595446E-15
 73.85785675   0.1219560817E-15
 73.98464966   0.1182939744E-15
 74.11144257   0.1095795142E-15
 74.23823547   0.9571907732E-16
 74.36502838   0.7684188930E-16
 74.49182129   0.5331451356E-16
 74.61861420   0.2574557636E-16
 74.74540710   -0.5020315061E-17
 74.87220001   -0.3792012649E-16
 74.99899292   -0.7170168971E-16
 75.12578583   -0.1049642964E-15
 75.25257874   -0.1362096874E-15
 75.37937164   -0.1639019209E-15
 75.50616455   -0.1865341250E-15
 75.63295746   -0.2026993915E-15
 75.75975037   -0.2111630506E-15
 75.88654327   -0.2109327503E-15
 76.01333618   -0.2013231350E-15
 76.14012909   -0.1820114191E-15
 76.26692200   -0.1530805985E-15
 76.39371490   -0.1150471516E-15
 76.52050781   -0.6887083943E-16
 76.64730072   -0.1594466897E-16
 76.77409363   0.4193625380E-16
 76.90088654   0.1026267766E-15
 77.02767181   0.1637040990E-15
 77.15446472   0.2225585157E-15
 77.28125763   0.2764995590E-15
 77.40805054   0.3228735806E-15
 77.53484344   0.3591881859E-15
 77.66163635   0.3832379394E-15
 77.78842926   0.3932254108E-15
 77.91522217   0.3878714743E-15
 78.04201508   0.3665085887E-15
 78.16880798   0.3291517888E-15
 78.29560089   0.2765415930E-15
 78.42239380   0.2101556769E-15
 78.54918671   0.1321856456E-15
 78.67597961   0.4547815516E-16
 78.80277252   -0.4655946882E-16
 78.92956543   -0.1400871263E-15
 79.05635834   -0.2309891405E-15
 79.18315125   -0.3150552812E-15
 79.30994415   -0.3881782061E-15
 79.43673706   -0.4465588403E-15
 79.56352997   -0.4869101135E-15
 79.69032288   -0.5066484164E-15
 79.81711578   -0.5040626895E-15
 79.94390869   -0.4784511131E-15
 80.07070160   -0.4302161601E-15
 80.19749451   -0.3609099921E-15
 80.32428741   -0.2732247179E-15
 80.45108032   -0.1709242210E-15
 80.57787323   -0.5871590700E-16
 80.70465851   0.5793444632E-16
 80.83145142   0.1730402549E-15
 80.95824432   0.2803751847E-15
 81.08503723   0.3737869575E-15
 81.21183014   0.4475302283E-15
 81.33862305   0.4966028703E-15
 81.46541595   0.5170681922E-15
 81.59220886   0.5063460256E-15
 81.71900177   0.4634551359E-15
 81.84579468   0.3891900135E-15
 81.97258759   0.2862180180E-15
 82.09938049   0.1590854268E-15
 82.22617340   0.1412505525E-16
 82.35296631   -0.1407395931E-15
 82.47975922   -0.2962908015E-15
 82.60655212   -0.4424069230E-15
 82.73334503   -0.5685357669E-15
 82.86013794   -0.6642321729E-15
 82.98693085   -0.7197400418E-15
 83.11372375   -0.7265908443E-15
 83.24051666   -0.6781922288E-15
 83.36730957   -0.5703735108E-15
 83.49410248   -0.4018592176E-15
 83.62089539   -0.1746392149E-15
 83.74768829   0.1057934225E-15
 83.87448120   0.4303583293E-15
 84.00127411   0.7864772913E-15
 84.12806702   0.1158347519E-14
 84.25485992   0.1527403374E-14
 84.38165283   0.1872959253E-14
 84.50843811   0.2173021522E-14
 84.63523102   0.2405242592E-14
 84.76202393   0.2547988184E-14
 84.88881683   0.2581473938E-14
 85.01560974   0.2488926059E-14
 85.14240265   0.2257711264E-14
 85.26919556   0.1880384767E-14
 85.39598846   0.1355593858E-14
 85.52278137   0.6887871286E-15
 85.64957428   -0.1073187038E-15
 85.77636719   -0.1012565102E-14
 85.90316010   -0.1999495176E-14
 86.02995300   -0.3033843530E-14
 86.15674591   -0.4075375782E-14
 86.28353882   -0.5079070861E-14
 86.41033173   -0.5996627772E-14
 86.53712463   -0.6778250717E-14
 86.66391754   -0.7374665250E-14
 86.79071045   -0.7739291758E-14
 86.91750336   -0.7830500266E-14
 87.04429626   -0.7613847873E-14
 87.17108917   -0.7064216240E-14
 87.29788208   -0.6167737321E-14
 87.42467499   -0.4923409076E-14
 87.55146790   -0.3344323245E-14
 87.67826080   -0.1458405447E-14
 87.80505371   0.6913902197E-15
 87.93184662   0.3047486478E-14
 88.05863953   0.5538714137E-14
 88.18543243   0.8081978419E-14
 88.31221771   0.1058453980E-13
 88.43901062   0.1294685794E-13
 88.56580353   0.1506593448E-13
 88.69259644   0.1683904718E-13
 88.81938934   0.1816776743E-13
 88.94618225   0.1896210307E-13
 89.07297516   0.1914464545E-13
 89.19976807   0.1865450645E-13
 89.32656097   0.1745094209E-13
 89.45335388   0.1551644928E-13
 89.58014679   0.1285918918E-13
 89.70693970   0.9514633852E-14
 89.83373260   0.5546274753E-14
 89.96052551   0.1045324737E-14
 90.08731842   -0.3870631402E-14
 90.21411133   -0.9060066845E-14
 90.34090424   -0.1436100486E-13
 90.46769714   -0.1959550415E-13
 90.59449005   -0.2457501264E-13
 90.72128296   -0.2910649152E-13
 90.84807587   -0.3299908225E-13
 90.97486877   -0.3607113184E-13
 91.10166168   -0.3815734350E-13
 91.22845459   -0.3911575450E-13
 91.35524750   -0.3883434644E-13
 91.48204041   -0.3723695411E-13
 91.60883331   -0.3428827318E-13
 91.73562622   -0.2999768199E-13
 91.86241913   -0.2442173525E-13
 91.98921204   -0.1766506693E-13
 92.11599731   -0.9879676253E-14
 92.24279022   -0.1262467032E-14
 92.36958313   0.7948951894E-14
 92.49637604   0.1748215017E-13
 92.62316895   0.2703734589E-13
 92.74996185   0.3629627997E-13
 92.87675476   0.4493223488E-13
 93.00354767   0.5262095962E-13
 93.13034058   0.5905209454E-13
 93.25713348   0.6394077569E-13
 93.38392639   0.6703898504E-13
 93.51071930   0.6814626717E-13
 93.63751221   0.6711929054E-13
 93.76430511   0.6388003326E-13
 93.89109802   0.5842200367E-13
 94.01789093   0.5081433660E-13
 94.14468384   0.4120344338E-13
 94.27147675   0.2981196155E-13
 94.39826965   0.1693496350E-13
 94.52506256   0.2933383728E-14
 94.65185547   -0.1177529194E-13
 94.77864838   -0.2672886496E-13
 94.90544128   -0.4143450719E-13
 95.03223419   -0.5538471971E-13
 95.15902710   -0.6807469627E-13
 95.28582001   -0.7902055746E-13
 95.41261292   -0.8777776683E-13
 95.53940582   -0.9395918966E-13
 95.66619873   -0.9725202008E-13
 95.79299164   -0.9743282434E-13
 95.91977692   -0.9438028023E-13
 96.04656982   -0.8808465703E-13
 96.17336273   -0.7865379219E-13
 96.30015564   -0.6631491417E-13
 96.42694855   -0.5141208436E-13
 96.55374146   -0.3439916334E-13
 96.68053436   -0.1582808964E-13
 96.80732727   0.3667129619E-14
 96.93412018   0.2339061324E-13
 97.06091309   0.4260818993E-13
 97.18770599   0.6057400946E-13
 97.31449890   0.7655896452E-13
 97.44129181   0.8988031944E-13
 97.56808472   0.9993107009E-13
 97.69487762   0.1062082551E-12
 97.82167053   0.1083386988E-12
 97.94846344   0.1061012104E-12
 98.07525635   0.9944403292E-13
 98.20204926   0.8849654543E-13
 98.32884216   0.7357442021E-13
 98.45563507   0.5517746768E-13
 98.58242798   0.3397990575E-13
 98.70922089   0.1081286939E-13
 98.83601379   -0.1336066149E-13
 98.96280670   -0.3747809422E-13
 99.08959961   -0.6041560074E-13
 99.21639252   -0.8103175926E-13
 99.34318542   -0.9821473740E-13
 99.46997833   -0.1109317174E-12
 99.59677124   -0.1182783391E-12
 99.72355652   -0.1195263642E-12
 99.85034943   -0.1141673290E-12
 99.97714233   -0.1019502611E-12
 100.1039352   -0.8291131182E-13
 100.2307281   -0.5739378021E-13
 100.3575211   -0.2605664775E-13
 100.4843140   0.1012924181E-13
 100.6111069   0.4989820948E-13
 100.7378998   0.9172025119E-13
 100.8646927   0.1338446904E-12
 100.9914856   0.1743561621E-12
 101.1182785   0.2112415603E-12
 101.2450714   0.2424659323E-12
 101.3718643   0.2660550003E-12
 101.4986572   0.2801810704E-12
 101.6254501   0.2832497420E-12
 101.7522430   0.2739832829E-12
 101.8790359   0.2514977701E-12
 102.0058289   0.2153694839E-12
 102.1326218   0.1656884536E-12
 102.2594147   0.1030950363E-12
 102.3862076   0.2879718897E-13
 102.5130005   -0.5543259062E-13
 102.6397934   -0.1472836881E-12
 102.7665863   -0.2439558972E-12
 102.8933792   -0.3422304486E-12
 103.0201721   -0.4385622453E-12
 103.1469650   -0.5291902441E-12
 103.2737579   -0.6102638468E-12
 103.4005508   -0.6779804040E-12
 103.5273361   -0.7287300104E-12
 103.6541290   -0.7592414111E-12
 103.7809219   -0.7667246287E-12
 103.9077148   -0.7490039947E-12
 104.0345078   -0.7046355686E-12
 104.1613007   -0.6330047164E-12
 104.2880936   -0.5343982093E-12
 104.4148865   -0.4100470777E-12
 104.5416794   -0.2621373984E-12
 104.6684723   -0.9378697770E-13
 104.7952652   0.9101295835E-13
 104.9220581   0.2874898941E-12
 105.0488510   0.4902143687E-12
 105.1756439   0.6932534516E-12
 105.3024368   0.8903475288E-12
 105.4292297   0.1075106800E-11
 105.5560226   0.1241217957E-11
 105.6828156   0.1382656793E-11
 105.8096085   0.1493896261E-11
 105.9364014   0.1570103964E-11
 106.0631943   0.1607320939E-11
 106.1899872   0.1602614200E-11
 106.3167801   0.1554197634E-11
 106.4435730   0.1461515587E-11
 106.5703659   0.1325285910E-11
 106.6971588   0.1147499955E-11
 106.8239517   0.9313785637E-12
 106.9507446   0.6812867328E-12
 107.0775375   0.4026094779E-12
 107.2043304   0.1015925557E-12
 107.3311157   -0.2148439711E-12
 107.4579086   -0.5393137109E-12
 107.5847015   -0.8641835620E-12
 107.7114944   -0.1181797715E-11
 107.8382874   -0.1484695396E-11
 107.9650803   -0.1765815250E-11
 108.0918732   -0.2018677977E-11
 108.2186661   -0.2237538063E-11
 108.3454590   -0.2417503480E-11
 108.4722519   -0.2554614289E-11
 108.5990448   -0.2645883729E-11
 108.7258377   -0.2689297353E-11
 108.8526306   -0.2683775728E-11
 108.9794235   -0.2629102231E-11
 109.1062164   -0.2525826336E-11
 109.2330093   -0.2375145003E-11
 109.3598022   -0.2178775823E-11
 109.4865952   -0.1938827788E-11
 109.6133881   -0.1657682997E-11
 109.7401810   -0.1337896157E-11
 109.8669739   -0.9821221527E-12
 109.9937668   -0.5930768029E-12
 110.1205597   -0.1735389583E-12
 110.2473526   0.2736056553E-12
 110.3741455   0.7452786218E-12
 110.5009384   0.1238082662E-11
 110.6277313   0.1748143622E-11
 110.7545242   0.2270925635E-11
 110.8813171   0.2801033711E-11
 111.0081024   0.3332021291E-11
 111.1348953   0.3856209622E-11
 111.2616882   0.4364543015E-11
 111.3884811   0.4846494300E-11
 111.5152740   0.5290035771E-11
 111.6420670   0.5681694264E-11
 111.7688599   0.6006696009E-11
 111.8956528   0.6249219024E-11
 112.0224457   0.6392748744E-11
 112.1492386   0.6420539881E-11
 112.2760315   0.6316187157E-11
 112.4028244   0.6064274083E-11
 112.5296173   0.5651108921E-11
 112.6564102   0.5065497934E-11
 112.7832031   0.4299554202E-11
 112.9099960   0.3349490607E-11
 113.0367889   0.2216375954E-11
 113.1635818   0.9068063141E-12
 113.2903748   -0.5665369974E-12