 -4.500000000   0.3561247043E-17
 -4.373207569   0.3561188727E-17
 -4.246414661   0.3561078298E-17
 -4.119622231   0.3560926510E-17
 -3.992829323   0.3560763969E-17
 -3.866036654   0.3560099330E-17
 -3.739243984   0.3555383987E-17
 -3.612451553   0.3535887753E-17
 -3.485658884   0.3486518719E-17
 -3.358866215   0.3415387804E-17
 -3.232073545   0.3414968423E-17
 -3.105280876   0.3721610894E-17
 -2.978488207   0.4679675881E-17
 -2.851695538   0.6514243366E-17
 -2.724902868   0.8936246397E-17
 -2.598110199   0.1080549839E-16
 -2.471317530   0.1017228419E-16
 -2.344524860   0.4798633552E-17
 -2.217732191   -0.7242239233E-17
 -2.090939522   -0.2764614127E-16
 -1.964146972   -0.5899424335E-16
 -1.837354302   -0.1059070573E-15
 -1.710561633   -0.1737042229E-15
 -1.583768964   -0.2619579356E-15
 -1.456976295   -0.3531081569E-15
 -1.330183744   -0.4016058224E-15
 -1.203391075   -0.3339721209E-15
 -1.076598406   -0.7026032418E-16
 -0.9498057365   0.4305586791E-15
 -0.8230130672   0.1113804598E-14
 -0.6962204576   0.1789129461E-14
 -0.5694277883   0.2142361893E-14
 -0.4426351190   0.1823771626E-14
 -0.3158424795   0.6086114368E-15
 -0.1890498251   -0.1413252450E-14
 -0.6225717068E-01   -0.3695381556E-14
 0.6453548372E-01   -0.5227607406E-14
 0.1913281381   -0.4725860240E-14
 0.3181207776   -0.1020835108E-14
 0.4449134469   0.6433693384E-14
 0.5717061162   0.1708686700E-13
 0.6984987259   0.2904161896E-13
 0.8252913952   0.3919458277E-13
 0.9520840645   0.4383301651E-13
 1.078876734   0.3961035398E-13
 1.205669403   0.2466931620E-13
 1.332461953   -0.4206947157E-15
 1.459254622   -0.3224888889E-13
 1.586047292   -0.6489329473E-13
 1.712839961   -0.9100858088E-13
 1.839632630   -0.1034435599E-12
 1.966425300   -0.9697327170E-13
 2.093217850   -0.6967283738E-13
 2.220010519   -0.2356536800E-13
 2.346803188   0.3558385411E-13
 2.473595858   0.9916613835E-13
 2.600388527   0.1569425877E-12
 2.727181196   0.1981460785E-12
 2.853973866   0.2122113113E-12
 2.980766535   0.1891938348E-12
 3.107559204   0.1202801015E-12
 3.234351873   -0.1023505803E-14
 3.361144543   -0.1765498284E-12
 3.487936974   -0.3999560828E-12
 3.614729643   -0.6527035856E-12
 3.741522312   -0.9008901481E-12
 3.868314981   -0.1094694864E-11
 3.995107651   -0.1172046726E-11
 4.121900558   -0.1067326457E-11
 4.248692989   -0.7245598435E-12
 4.375485420   -0.1129928873E-12
 4.502278328   0.7583638036E-12
 4.629070759   0.1831193183E-11
 4.755863667   0.2996779257E-11
 4.882656097   0.4105184075E-11
 5.009449005   0.4984106444E-11
 5.136241436   0.5464240171E-11
 5.263034344   0.5405976881E-11
 5.389826775   0.4721513111E-11
 5.516619682   0.3387300640E-11
 5.643412113   0.1444097121E-11
 5.770205021   -0.1014843157E-11
 5.896997452   -0.3863623397E-11
 6.023790359   -0.6965548364E-11
 6.150582790   -0.1019050296E-10
 6.277375221   -0.1342332061E-10
 6.404168129   -0.1656228280E-10
 6.530960560   -0.1951170128E-10
 6.657753468   -0.2217656267E-10
 6.784545898   -0.2446929812E-10
 6.911338806   -0.2633734723E-10
 7.038131237   -0.2781502632E-10
 7.164924145   -0.2909477520E-10
 7.291716576   -0.3060312073E-10
 7.418509483   -0.3305769894E-10
 7.545301914   -0.3747692087E-10
 7.672094822   -0.4511464813E-10
 7.798887253   -0.5730088626E-10
 7.925679684   -0.7518452527E-10
 8.052472115   -0.9939347262E-10
 8.179265022   -0.1296470847E-09
 8.306057930   -0.1643709197E-09
 8.432850838   -0.2003700955E-09
 8.559642792   -0.2326119852E-09
 8.686435699   -0.2541537814E-09
 8.813228607   -0.2562267898E-09
 8.940021515   -0.2284662320E-09
 9.066813469   -0.1592600218E-09
 9.193606377   -0.3619031463E-10
 9.320399284   0.1534389560E-09
 9.447192192   0.4219560257E-09
 9.573984146   0.7804737412E-09
 9.700777054   0.1237710712E-08
 9.827569962   0.1798320937E-08
 9.954361916   0.2460589288E-08
 10.08115482   0.3213405098E-08
 10.20794773   0.4032560508E-08
 10.33474064   0.4876583581E-08
 10.46153259   0.5682534887E-08
 10.58832550   0.6362397276E-08
 10.71511841   0.6800850993E-08
 10.84191132   0.6855324308E-08
 10.96870327   0.6359158533E-08
 11.09549618   0.5128573122E-08
 11.22228909   0.2973789437E-08
 11.34908199   -0.2857677983E-09
 11.47587395   -0.4802813258E-08
 11.60266685   -0.1068127009E-07
 11.72945976   -0.1795485538E-07
 11.85625172   -0.2656744691E-07
 11.98304462   -0.3635797441E-07
 12.10983753   -0.4705279011E-07
 12.23663044   -0.5826868588E-07
 12.36342239   -0.6952971177E-07
 12.49021530   -0.8030077936E-07
 12.61700821   -0.9004085655E-07
 12.74380112   -0.9827791558E-07
 12.87059307   -0.1047076452E-06
 12.99738598   -0.1093166162E-06
 13.12417889   -0.1125300386E-06
 13.25097084   -0.1153831803E-06
 13.37776375   -0.1197137038E-06
 13.50455666   -0.1283710276E-06
 13.63134956   -0.1454371983E-06
 13.75814152   -0.1764515787E-06
 13.88493443   -0.2286311087E-06
 14.01172733   -0.3110751834E-06
 14.13852024   -0.4349448375E-06
 14.26531219   -0.6136043567E-06
 14.39210510   -0.8627138754E-06
 14.51889801   -0.1200262773E-05
 14.64569092   -0.1646534201E-05
 14.77248287   -0.2223994443E-05
 14.89927578   -0.2957102652E-05
 15.02606869   -0.3872037269E-05
 15.15286064   -0.4996342795E-05
 15.27965355   -0.6358504379E-05
 15.40644646   -0.7987450772E-05
 15.53323936   -0.9912001588E-05
 15.66003132   -0.1216027522E-04
 15.78682423   -0.1475905901E-04
 15.91361713   -0.1773318036E-04
 16.04040909   -0.2110486457E-04
 16.16720200   -0.2489312283E-04
 16.29399490   -0.2911316551E-04
 16.42078781   -0.3377586472E-04
 16.54758072   -0.3888726496E-04
 16.67437363   -0.4444816659E-04
 16.80116463   -0.5045376383E-04
 16.92795753   -0.5689336467E-04
 17.05475044   -0.6375019439E-04
 17.18154335   -0.7100129005E-04
 17.30833626   -0.7861743507E-04
 17.43512917   -0.8656326099E-04
 17.56192207   -0.9479740402E-04
 17.68871498   -0.1032727960E-03
 17.81550598   -0.1119370500E-03
 17.94229889   -0.1207329988E-03
 18.06909180   -0.1295993570E-03
 18.19588470   -0.1384714269E-03
 18.32267761   -0.1472821605E-03
 18.44947052   -0.1559630182E-03
 18.57626343   -0.1644451986E-03
 18.70305443   -0.1726607879E-03
 18.82984734   -0.1805440406E-03
 18.95664024   -0.1880326017E-03
 19.08343315   -0.1950687438E-03
 19.21022606   -0.2016005310E-03
 19.33701897   -0.2075828816E-03
 19.46381187   -0.2129785280E-03
 19.59060478   -0.2177587303E-03
 19.71739578   -0.2219037851E-03
 19.84418869   -0.2254033752E-03
 19.97098160   -0.2282566275E-03
 20.09777451   -0.2304719528E-03
 20.22456741   -0.2320665808E-03
 20.35136032   -0.2330659481E-03
 20.47815323   -0.2335028839E-03
 20.60494423   -0.2334166202E-03
 20.73173714   -0.2328516857E-03
 20.85853004   -0.2318567567E-03
 20.98532295   -0.2304835652E-03
 21.11211586   -0.2287857642E-03
 21.23890877   -0.2268178505E-03
 21.36570168   -0.2246343793E-03
 21.49249458   -0.2222892363E-03
 21.61928558   -0.2198350994E-03
 21.74607849   -0.2173231187E-03
 21.87287140   -0.2148026833E-03
 21.99966431   -0.2123214654E-03
 22.12645721   -0.2099255362E-03
 22.25325012   -0.2076594101E-03
 22.38004303   -0.2055663354E-03
 22.50683403   -0.2036884689E-03
 22.63362694   -0.2020668180E-03
 22.76041985   -0.2007413132E-03
 22.88721275   -0.1997505606E-03
 23.01400566   -0.1991313620E-03
 23.14079857   -0.1989181474E-03
 23.26759148   -0.1991422469E-03
 23.39438438   -0.1998307416E-03
 23.52117538   -0.2010055032E-03
 23.64796829   -0.2026818402E-03
 23.77476120   -0.2048674651E-03
 23.90155411   -0.2075611992E-03
 24.02834702   -0.2107520268E-03
 24.15513992   -0.2144183527E-03
 24.28193283   -0.2185273916E-03
 24.40872383   -0.2230351383E-03
 24.53551674   -0.2278866887E-03
 24.66230965   -0.2330169082E-03
 24.78910255   -0.2383515675E-03
 24.91589546   -0.2438091033E-03
 25.04268837   -0.2493025968E-03
 25.16948128   -0.2547421027E-03
 25.29627419   -0.2600373700E-03
 25.42306519   -0.2651007380E-03
 25.54985809   -0.2698499593E-03
 25.67665100   -0.2742110810E-03
 25.80344391   -0.2781212097E-03
 25.93023682   -0.2815310727E-03
 26.05702972   -0.2844068804E-03
 26.18382263   -0.2867323637E-03
 26.31061363   -0.2885096183E-03
 26.43740654   -0.2897597151E-03
 26.56419945   -0.2905227011E-03
 26.69099236   -0.2908568713E-03
 26.81778526   -0.2908374590E-03
 26.94457817   -0.2905549190E-03
 27.07137108   -0.2901123953E-03
 27.19816399   -0.2896230726E-03
 27.32495499   -0.2892070625E-03
 27.45174789   -0.2889881434E-03
 27.57854080   -0.2890903561E-03
 27.70533371   -0.2896348888E-03
 27.83212662   -0.2907367016E-03
 27.95891953   -0.2925016743E-03
 28.08571243   -0.2950241033E-03
 28.21250343   -0.2983843733E-03
 28.33929634   -0.3026475315E-03
 28.46608925   -0.3078618320E-03
 28.59288216   -0.3140581248E-03
 28.71967506   -0.3212497104E-03
 28.84646797   -0.3294323978E-03
 28.97326088   -0.3385853197E-03
 29.10005379   -0.3486720670E-03
 29.22684479   -0.3596418828E-03
 29.35363770   -0.3714313498E-03
 29.48043060   -0.3839661658E-03
 29.60722351   -0.3971631813E-03
 29.73401642   -0.4109322617E-03
 29.86080933   -0.4251784412E-03
 29.98760223   -0.4398041056E-03
 30.11439323   -0.4547105054E-03
 30.24118614   -0.4697998811E-03
 30.36797905   -0.4849772668E-03
 30.49477196   -0.5001515965E-03
 30.62156487   -0.5152374506E-03
 30.74835777   -0.5301559577E-03
 30.87515068   -0.5448357551E-03
 31.00194168   -0.5592136877E-03
 31.12873459   -0.5732355057E-03
 31.25552750   -0.5868557491E-03
 31.38232040   -0.6000378635E-03
 31.50911331   -0.6127542583E-03
 31.63590622   -0.6249853759E-03
 31.76269913   -0.6367193419E-03
 31.88949203   -0.6479509757E-03
 32.01628494   -0.6586806849E-03
 32.14307785   -0.6689129514E-03
 32.26987076   -0.6786552258E-03
 32.39666367   -0.6879160064E-03
 32.52345276   -0.6967029767E-03
 32.65024567   -0.7050214917E-03
 32.77703857   -0.7128724246E-03
 32.90383148   -0.7202507113E-03
 33.03062439   -0.7271431969E-03
 33.15741730   -0.7335277623E-03
 33.28421021   -0.7393713458E-03
 33.41100311   -0.7446295349E-03
 33.53779602   -0.7492456934E-03
 33.66458893   -0.7531509036E-03
 33.79138184   -0.7562643732E-03
 33.91817474   -0.7584941341E-03
 34.04496765   -0.7597384392E-03
 34.17176056   -0.7598879165E-03
 34.29855347   -0.7588277222E-03
 34.42534256   -0.7564402767E-03
 34.55213547   -0.7526086993E-03
 34.67892838   -0.7472202997E-03
 34.80572128   -0.7401700132E-03
 34.93251419   -0.7313643582E-03
 35.05930710   -0.7207251620E-03
 35.18610001   -0.7081929944E-03
 35.31289291   -0.6937302533E-03
 35.43968582   -0.6773241912E-03
 35.56647873   -0.6589891855E-03
 35.69327164   -0.6387683097E-03
 35.82006454   -0.6167342653E-03
 35.94685745   -0.5929900799E-03
 36.07365036   -0.5676682340E-03
 36.20044327   -0.5409300211E-03
 36.32723236   -0.5129631609E-03
 36.45402527   -0.4839795292E-03
 36.58081818   -0.4542120150E-03
 36.70761108   -0.4239106493E-03
 36.83440399   -0.3933385888E-03
 36.96119690   -0.3627673432E-03
 37.08798981   -0.3324719728E-03
 37.21478271   -0.3027262574E-03
 37.34157562   -0.2737974864E-03
 37.46836853   -0.2459416282E-03
 37.59516144   -0.2193985420E-03
 37.72195435   -0.1943876705E-03
 37.84874725   -0.1711039658E-03
 37.97554016   -0.1497145422E-03
 38.10232925   -0.1303558238E-03
 38.22912216   -0.1131313547E-03
 38.35591507   -0.9811041673E-04
 38.48270798   -0.8532724314E-04
 38.60950089   -0.7478106272E-04
 38.73629379   -0.6643680535E-04
 38.86308670   -0.6022649541E-04
 38.98987961   -0.5605126353E-04
 39.11667252   -0.5378384230E-04
 39.24346542   -0.5327166582E-04
 39.37025833   -0.5434022023E-04
 39.49705124   -0.5679683818E-04
 39.62384415   -0.6043461690E-04
 39.75063705   -0.6503659097E-04
 39.87742996   -0.7037990144E-04
 40.00421906   -0.7624004502E-04
 40.13101196   -0.8239493036E-04
 40.25780487   -0.8862894902E-04
 40.38459778   -0.9473668615E-04
 40.51139069   -0.1005264930E-03
 40.63818359   -0.1058236157E-03
 40.76497650   -0.1104729599E-03
 40.89176941   -0.1143415357E-03
 41.01856232   -0.1173202254E-03
 41.14535522   -0.1193251737E-03
 41.27214813   -0.1202985659E-03
 41.39894104   -0.1202088315E-03
 41.52573395   -0.1190502517E-03
 41.65252686   -0.1168420713E-03
 41.77931976   -0.1136270002E-03
 41.90610886   -0.1094692343E-03
 42.03290176   -0.1044521414E-03
 42.15969467   -0.9867543122E-04
 42.28648758   -0.9225227404E-04
 42.41328049   -0.8530612104E-04
 42.54007339   -0.7796755381E-04
 42.66686630   -0.7037114119E-04
 42.79365921   -0.6265250704E-04
 42.92045212   -0.5494556171E-04
 43.04724503   -0.4738015195E-04
 43.17403793   -0.4008000178E-04
 43.30083084   -0.3316101720E-04
 43.42762375   -0.2673010931E-04
 43.55441666   -0.2088429574E-04
 43.68120956   -0.1571021858E-04
 43.80799866   -0.1128391978E-04
 43.93479156   -0.7670858395E-05
 44.06158447   -0.4926097517E-05
 44.18837738   -0.3094524345E-05
 44.31517029   -0.2211130095E-05
 44.44196320   -0.2301211907E-05
 44.56875610   -0.3380478347E-05
 44.69554901   -0.5455024620E-05
 44.82234192   -0.8521164091E-05
 44.94913483   -0.1256511769E-04
 45.07592773   -0.1756259735E-04
 45.20272064   -0.2347831651E-04
 45.32951355   -0.3026548984E-04
 45.45630646   -0.3786541856E-04
 45.58309937   -0.4620717300E-04
 45.70988846   -0.5520750710E-04
 45.83668137   -0.6477104762E-04
 45.96347427   -0.7479081250E-04
 46.09026718   -0.8514909860E-04
 46.21706009   -0.9571881674E-04
 46.34385300   -0.1063651289E-03
 46.47064590   -0.1169475945E-03
 46.59743881   -0.1273225935E-03
 46.72423172   -0.1373460109E-03
 46.85102463   -0.1468762639E-03
 46.97781754   -0.1557772775E-03
 47.10461044   -0.1639215770E-03
 47.23140335   -0.1711932564E-03
 47.35819626   -0.1774906559E-03
 47.48498917   -0.1827289234E-03
 47.61177826   -0.1868419204E-03
 47.73857117   -0.1897838811E-03
 47.86536407   -0.1915304601E-03
 47.99215698   -0.1920792856E-03
 48.11894989   -0.1914498716E-03
 48.24574280   -0.1896831673E-03
 48.37253571   -0.1868404215E-03
 48.49932861   -0.1830016554E-03
 48.62612152   -0.1782637701E-03
 48.75291443   -0.1727382914E-03
 48.87970734   -0.1665487362E-03
 49.00650024   -0.1598280069E-03
 49.13329315   -0.1527154964E-03
 49.26008606   -0.1453543518E-03
 49.38687897   -0.1378885936E-03
 49.51366806   -0.1304605830E-03
 49.64046097   -0.1232085051E-03
 49.76725388   -0.1162641784E-03
 49.89404678   -0.1097510831E-03
 50.02083969   -0.1037827824E-03
 50.14763260   -0.9846146713E-04
 50.27442551   -0.9387692262E-04
 50.40121841   -0.9010571375E-04
 50.52801132   -0.8721066115E-04
 50.65480423   -0.8524041914E-04
 50.78159714   -0.8422938845E-04
 50.90839005   -0.8419759251E-04
 51.03518295   -0.8515074296E-04
 51.16197586   -0.8708040696E-04
 51.28876877   -0.8996410907E-04
 51.41555786   -0.9376565140E-04
 51.54235077   -0.9843539738E-04
 51.66914368   -0.1039106355E-03
 51.79593658   -0.1101161179E-03
 51.92272949   -0.1169647003E-03
 52.04952240   -0.1243581355E-03
 52.17631531   -0.1321881427E-03
 52.30310822   -0.1403376809E-03
 52.42990112   -0.1486825349E-03
 52.55669403   -0.1570931345E-03
 52.68348694   -0.1654367516E-03
 52.81027985   -0.1735798432E-03
 52.93707275   -0.1813907002E-03
 53.06386566   -0.1887422404E-03
 53.19065857   -0.1955148473E-03
 53.31744766   -0.2015991777E-03
 53.44424057   -0.2068989124E-03
 53.57103348   -0.2113331866E-03
 53.69782639   -0.2148386848E-03
 53.82461929   -0.2173713729E-03
 53.95141220   -0.2189075749E-03
 54.07820511   -0.2194445406E-03
 54.20499802   -0.2190002706E-03
 54.33179092   -0.2176129201E-03
 54.45858383   -0.2153391979E-03
 54.58537674   -0.2122525184E-03
 54.71216965   -0.2084404259E-03
 54.83896255   -0.2040017134E-03
 54.96575546   -0.1990431774E-03
 55.09254837   -0.1936762856E-03
 55.21933746   -0.1880137279E-03
 55.34613037   -0.1821661426E-03
 55.47292328   -0.1762391475E-03
 55.59971619   -0.1703306625E-03
 55.72650909   -0.1645285811E-03
 55.85330200   -0.1589092863E-03
 55.98009491   -0.1535364136E-03
 56.10688782   -0.1484604436E-03
 56.23368073   -0.1437188475E-03
 56.36047363   -0.1393367274E-03
 56.48726654   -0.1353281114E-03
 56.61405945   -0.1316974958E-03
 56.74085236   -0.1284418249E-03
 56.86764526   -0.1255526877E-03
 56.99443817   -0.1230185153E-03
 57.12122726   -0.1208267495E-03
 57.24802017   -0.1189658651E-03
 57.37481308   -0.1174270583E-03
 57.50160599   -0.1162055632E-03
 57.62839890   -0.1153015401E-03
 57.75519180   -0.1147204166E-03
 57.88198471   -0.1144726921E-03
 58.00877762   -0.1145732458E-03
 58.13557053   -0.1150401731E-03
 58.26236343   -0.1158932137E-03
 58.38915634   -0.1171518088E-03
 58.51594925   -0.1188330643E-03
 58.64274216   -0.1209495458E-03
 58.76953506   -0.1235071832E-03
 58.89632797   -0.1265032915E-03
 59.02311707   -0.1299249561E-03
 59.14990997   -0.1337477879E-03
 59.27670288   -0.1379351597E-03
 59.40349579   -0.1424379443E-03
 59.53028870   -0.1471949799E-03
 59.65708160   -0.1521339873E-03
 59.78387451   -0.1571730973E-03
 59.91066742   -0.1622230338E-03
 60.03746033   -0.1671895589E-03
 60.16425323   -0.1719764550E-03
 60.29104614   -0.1764887129E-03
 60.41783905   -0.1806357031E-03
 60.54463196   -0.1843345235E-03
 60.67142487   -0.1875130547E-03
 60.79821777   -0.1901126961E-03
 60.92500687   -0.1920907380E-03
 61.05179977   -0.1934221655E-03
 61.17859268   -0.1941008522E-03
 61.30538559   -0.1941399969E-03
 61.43217850   -0.1935719920E-03
 61.55897141   -0.1924474636E-03
 61.68576431   -0.1908336853E-03
 61.81255722   -0.1888123079E-03
 61.93935013   -0.1864765945E-03
 62.06614304   -0.1839282631E-03
 62.19293594   -0.1812739356E-03
 62.31972885   -0.1786215144E-03
 62.44652176   -0.1760763989E-03
 62.57331467   -0.1737379789E-03
 62.70010757   -0.1716962870E-03
 62.82689667   -0.1700290450E-03
 62.95368958   -0.1687993499E-03
 63.08048248   -0.1680537243E-03
 63.20727539   -0.1678210392E-03
 63.33406830   -0.1681121212E-03
 63.46086121   -0.1689199562E-03
 63.58765411   -0.1702206937E-03
 63.71444702   -0.1719752618E-03
 63.84123993   -0.1741314627E-03
 63.96803284   -0.1766266505E-03
 64.09482574   -0.1793904958E-03
 64.22161865   -0.1823480998E-03
 64.34841156   -0.1854231232E-03
 64.47520447   -0.1885406236E-03
 64.60199738   -0.1916298497E-03
 64.72879028   -0.1946265256E-03
 64.85558319   -0.1974748302E-03
 64.98237610   -0.2001286339E-03
 65.10916901   -0.2025523281E-03
 65.23596191   -0.2047209709E-03
 65.36275482   -0.2066199086E-03
 65.48954773   -0.2082438004E-03
 65.61633301   -0.2095951786E-03
 65.74312592   -0.2106826141E-03
 65.86991882   -0.2115186653E-03
 65.99671173   -0.2121175930E-03
 66.12350464   -0.2124930761E-03
 66.25029755   -0.2126560576E-03
 66.37709045   -0.2126127656E-03
 66.50388336   -0.2123632003E-03
 66.63067627   -0.2119000128E-03
 66.75746918   -0.2112078364E-03
 66.88426208   -0.2102634026E-03
 67.01105499   -0.2090361231E-03
 67.13784790   -0.2074892254E-03
 67.26464081   -0.2055815567E-03
 67.39143372   -0.2032696793E-03
 67.51822662   -0.2005104470E-03
 67.64501953   -0.1972637838E-03
 67.77181244   -0.1934954489E-03
 67.89860535   -0.1891798747E-03
 68.02539825   -0.1843027421E-03
 68.15219116   -0.1788632944E-03
 68.27898407   -0.1728761708E-03
 68.40577698   -0.1663727598E-03
 68.53256989   -0.1594019122E-03
 68.65936279   -0.1520300284E-03
 68.78615570   -0.1443405345E-03
 68.91294861   -0.1364326163E-03
 69.03974152   -0.1284193713E-03
 69.16653442   -0.1204254368E-03
 69.29332733   -0.1125840499E-03
 69.42011261   -0.1050338324E-03
 69.54690552   -0.9791519551E-04
 69.67369843   -0.9136671724E-04
 69.80049133   -0.8552140935E-04
 69.92728424   -0.8050317410E-04
 70.05407715   -0.7642347191E-04
 70.18087006   -0.7337832358E-04
 70.30766296   -0.7144578558E-04
 70.43445587   -0.7068389823E-04
 70.56124878   -0.7112930325E-04
 70.68804169   -0.7279637794E-04
 70.81483459   -0.7567700959E-04
 70.94162750   -0.7974103210E-04
 71.06842041   -0.8493714995E-04
 71.19521332   -0.9119448805E-04
 71.32200623   -0.9842450527E-04
 71.44879913   -0.1065234173E-03
 71.57559204   -0.1153747726E-03
 71.70238495   -0.1248523768E-03
 71.82917786   -0.1348231890E-03
 71.95597076   -0.1451503340E-03
 72.08276367   -0.1556959905E-03
 72.20955658   -0.1663240837E-03
 72.33634949   -0.1769027003E-03
 72.46314240   -0.1873063302E-03
 72.58993530   -0.1974175539E-03
 72.71672821   -0.2071284252E-03
 72.84352112   -0.2163414902E-03
 72.97031403   -0.2249703975E-03
 73.09710693   -0.2329400595E-03
 73.22389221   -0.2401866368E-03
 73.35068512   -0.2466570586E-03
 73.47747803   -0.2523084404E-03
 73.60427094   -0.2571074874E-03
 73.73106384   -0.2610294323E-03
 73.85785675   -0.2640572202E-03
 73.98464966   -0.2661807230E-03
 74.11144257   -0.2673960407E-03
 74.23823547   -0.2677045995E-03
 74.36502838   -0.2671131224E-03
 74.49182129   -0.2656330180E-03
 74.61861420   -0.2632805263E-03
 74.74540710   -0.2600768348E-03
 74.87220001   -0.2560484863E-03
 74.99899292   -0.2512279316E-03
 75.12578583   -0.2456540824E-03
 75.25257874   -0.2393731265E-03
 75.37937164   -0.2324391098E-03
 75.50616455   -0.2249146055E-03
 75.63295746   -0.2168710635E-03
 75.75975037   -0.2083889849E-03
 75.88654327   -0.1995578787E-03
 76.01333618   -0.1904756791E-03
 76.14012909   -0.1812479022E-03
 76.26692200   -0.1719864958E-03
 76.39371490   -0.1628080936E-03
 76.52050781   -0.1538321667E-03
 76.64730072   -0.1451785938E-03
 76.77409363   -0.1369653328E-03
 76.90088654   -0.1293056994E-03
 77.02767181   -0.1223056897E-03
 77.15446472   -0.1160613683E-03
 77.28125763   -0.1106563359E-03
 77.40805054   -0.1061595685E-03
 77.53484344   -0.1026234677E-03
 77.66163635   -0.1000824268E-03
 77.78842926   -0.9855191456E-04
 77.91522217   -0.9802797285E-04
 78.04201508   -0.9848741320E-04
 78.16880798   -0.9988851525E-04
 78.29560089   -0.1021723365E-03
 78.42239380   -0.1052644584E-03
 78.54918671   -0.1090772857E-03
 78.67597961   -0.1135126367E-03
 78.80277252   -0.1184646826E-03
 78.92956543   -0.1238230179E-03
 79.05635834   -0.1294759277E-03
 79.18315125   -0.1353134576E-03
 79.30994415   -0.1412304118E-03
 79.43673706   -0.1471291762E-03
 79.56352997   -0.1529220463E-03
 79.69032288   -0.1585331629E-03
 79.81711578   -0.1639000111E-03
 79.94390869   -0.1689742203E-03
 80.07070160   -0.1737218990E-03
 80.19749451   -0.1781232859E-03
 80.32428741   -0.1821718761E-03
 80.45108032   -0.1858730102E-03
 80.57787323   -0.1892419532E-03
 80.70465851   -0.1923017262E-03
 80.83145142   -0.1950804726E-03
 80.95824432   -0.1976089407E-03
 81.08503723   -0.1999177766E-03
 81.21183014   -0.2020349202E-03
 81.33862305   -0.2039833489E-03
 81.46541595   -0.2057790989E-03
 81.59220886   -0.2074297518E-03
 81.71900177   -0.2089333721E-03
 81.84579468   -0.2102781145E-03
 81.97258759   -0.2114424569E-03
 82.09938049   -0.2123958548E-03
 82.22617340   -0.2131001820E-03
 82.35296631   -0.2135114773E-03
 82.47975922   -0.2135822579E-03
 82.60655212   -0.2132640948E-03
 82.73334503   -0.2125104074E-03
 82.86013794   -0.2112793445E-03
 82.98693085   -0.2095364325E-03
 83.11372375   -0.2072573552E-03
 83.24051666   -0.2044300054E-03
 83.36730957   -0.2010564349E-03
 83.49410248   -0.1971540478E-03
 83.62089539   -0.1927562698E-03
 83.74768829   -0.1879125775E-03
 83.87448120   -0.1826879161E-03
 84.00127411   -0.1771613024E-03
 84.12806702   -0.1714240352E-03
 84.25485992   -0.1655772357E-03
 84.38165283   -0.1597290830E-03
 84.50843811   -0.1539916702E-03
 84.63523102   -0.1484776876E-03
 84.76202393   -0.1432971621E-03
 84.88881683   -0.1385541691E-03
 85.01560974   -0.1343438053E-03
 85.14240265   -0.1307496423E-03
 85.26919556   -0.1278414129E-03
 85.39598846   -0.1256733376E-03
 85.52278137   -0.1242830476E-03
 85.64957428   -0.1236909447E-03
 85.77636719   -0.1239003032E-03
 85.90316010   -0.1248977787E-03
 86.02995300   -0.1266545005E-03
 86.15674591   -0.1291274821E-03
 86.28353882   -0.1322614553E-03
 86.41033173   -0.1359908492E-03
 86.53712463   -0.1402420166E-03
 86.66391754   -0.1449353585E-03
 86.79071045   -0.1499876817E-03
 86.91750336   -0.1553141628E-03
 87.04429626   -0.1608303719E-03
 87.17108917   -0.1664540177E-03
 87.29788208   -0.1721064764E-03
 87.42467499   -0.1777139987E-03
 87.55146790   -0.1832087000E-03
 87.67826080   -0.1885292440E-03
 87.80505371   -0.1936211775E-03
 87.93184662   -0.1984370901E-03
 88.05863953   -0.2029364696E-03
 88.18543243   -0.2070852934E-03
 88.31221771   -0.2108556218E-03
 88.43901062   -0.2142248704E-03
 88.56580353   -0.2171751112E-03
 88.69259644   -0.2196923306E-03
 88.81938934   -0.2217656875E-03
 88.94618225   -0.2233868727E-03
 89.07297516   -0.2245495270E-03
 89.19976807   -0.2252488484E-03
 89.32656097   -0.2254812571E-03
 89.45335388   -0.2252443810E-03
 89.58014679   -0.2245371288E-03
 89.70693970   -0.2233599662E-03
 89.83373260   -0.2217153524E-03
 89.96052551   -0.2196083224E-03
 90.08731842   -0.2170471853E-03
 90.21411133   -0.2140443103E-03
 90.34090424   -0.2106168395E-03
 90.46769714   -0.2067875175E-03
 90.59449005   -0.2025852882E-03
 90.72128296   -0.1980458474E-03
 90.84807587   -0.1932119194E-03
 90.97486877   -0.1881333737E-03
 91.10166168   -0.1828670647E-03
 91.22845459   -0.1774762786E-03
 91.35524750   -0.1720300497E-03
 91.48204041   -0.1666020253E-03
 91.60883331   -0.1612692140E-03
 91.73562622   -0.1561103563E-03
 91.86241913   -0.1512043236E-03
 91.98921204   -0.1466282411E-03
 92.11599731   -0.1424555667E-03
 92.24279022   -0.1387543452E-03
 92.36958313   -0.1355854038E-03
 92.49637604   -0.1330007508E-03
 92.62316895   -0.1310422522E-03
 92.74996185   -0.1297405106E-03
 92.87675476   -0.1291140361E-03
 93.00354767   -0.1291689114E-03
 93.13034058   -0.1298985735E-03
 93.25713348   -0.1312841341E-03
 93.38392639   -0.1332950051E-03
 93.51071930   -0.1358896843E-03
 93.63751221   -0.1390169782E-03
 93.76430511   -0.1426173694E-03
 93.89109802   -0.1466244576E-03
 94.01789093   -0.1509666035E-03
 94.14468384   -0.1555685012E-03
 94.27147675   -0.1603527053E-03
 94.39826965   -0.1652411302E-03
 94.52506256   -0.1701564179E-03
 94.65185547   -0.1750230294E-03
 94.77864838   -0.1797683508E-03
 94.90544128   -0.1843233913E-03
 95.03223419   -0.1886236423E-03
 95.15902710   -0.1926094556E-03
 95.28582001   -0.1962265815E-03
 95.41261292   -0.1994265185E-03
 95.53940582   -0.2021667897E-03
 95.66619873   -0.2044111898E-03
 95.79299164   -0.2061301348E-03
 95.91977692   -0.2073007927E-03
 96.04656982   -0.2079073311E-03
 96.17336273   -0.2079411206E-03
 96.30015564   -0.2074009535E-03
 96.42694855   -0.2062931308E-03
 96.55374146   -0.2046315494E-03
 96.68053436   -0.2024376736E-03
 96.80732727   -0.1997405343E-03
 96.93412018   -0.1965763950E-03
 97.06091309   -0.1929884456E-03
 97.18770599   -0.1890264684E-03
 97.31449890   -0.1847461099E-03
 97.44129181   -0.1802082988E-03
 97.56808472   -0.1754784025E-03
 97.69487762   -0.1706253533E-03
 97.82167053   -0.1657207904E-03
 97.94846344   -0.1608378807E-03
 98.07525635   -0.1560505334E-03
 98.20204926   -0.1514321193E-03
 98.32884216   -0.1470546413E-03
 98.45563507   -0.1429875119E-03
 98.58242798   -0.1392966806E-03
 98.70922089   -0.1360435999E-03
 98.83601379   -0.1332842949E-03
 98.96280670   -0.1310684602E-03
 99.08959961   -0.1294386020E-03
 99.21639252   -0.1284292666E-03
 99.34318542   -0.1280662400E-03
 99.46997833   -0.1283659367E-03
 99.59677124   -0.1293347013E-03
 99.72355652   -0.1309684012E-03
 99.85034943   -0.1332520333E-03
 99.97714233   -0.1361595641E-03
 100.1039352   -0.1396538864E-03
 100.2307281   -0.1436871680E-03
 100.3575211   -0.1482013176E-03
 100.4843140   -0.1531287853E-03
 100.6111069   -0.1583937265E-03
 100.7378998   -0.1639133843E-03
 100.8646927   -0.1695997489E-03
 100.9914856   -0.1753614633E-03
 101.1182785   -0.1811060210E-03
 101.2450714   -0.1867419196E-03
 101.3718643   -0.1921809016E-03
 101.4986572   -0.1973402686E-03
 101.6254501   -0.2021448745E-03
 101.7522430   -0.2065290173E-03
 101.8790359   -0.2104379091E-03
 102.0058289   -0.2138288546E-03
 102.1326218   -0.2166718914E-03
 102.2594147   -0.2189499792E-03
 102.3862076   -0.2206587960E-03
 102.5130005   -0.2218059235E-03
 102.6397934   -0.2224096388E-03
 102.7665863   -0.2224974014E-03
 102.8933792   -0.2221039322E-03
 103.0201721   -0.2212691616E-03
 103.1469650   -0.2200360032E-03
 103.2737579   -0.2184483892E-03
 103.4005508   -0.2165490587E-03
 103.5273361   -0.2143778693E-03
 103.6541290   -0.2119704441E-03
 103.7809219   -0.2093570511E-03
 103.9077148   -0.2065620938E-03
 104.0345078   -0.2036039223E-03
 104.1613007   -0.2004952403E-03
 104.2880936   -0.1972437603E-03
 104.4148865   -0.1938533969E-03
 104.5416794   -0.1903255907E-03
 104.6684723   -0.1866608945E-03
 104.7952652   -0.1828606182E-03
 104.9220581   -0.1789285307E-03
 105.0488510   -0.1748724171E-03
 105.1756439   -0.1707054907E-03
 105.3024368   -0.1664475276E-03
 105.4292297   -0.1621257397E-03
 105.5560226   -0.1577752992E-03
 105.6828156   -0.1534394542E-03
 105.8096085   -0.1491693110E-03
 105.9364014   -0.1450231648E-03
 106.0631943   -0.1410655386E-03
 106.1899872   -0.1373658306E-03
 106.3167801   -0.1339966839E-03
 106.4435730   -0.1310320949E-03
 106.5703659   -0.1285453036E-03
 106.6971588   -0.1266066974E-03
 106.8239517   -0.1252813963E-03
 106.9507446   -0.1246271568E-03
 107.0775375   -0.1246922329E-03
 107.2043304   -0.1255133975E-03
 107.3311157   -0.1271142246E-03
 107.4579086   -0.1295038383E-03
 107.5847015   -0.1326757338E-03
 107.7114944   -0.1366073411E-03
 107.8382874   -0.1412598067E-03
 107.9650803   -0.1465783571E-03
 108.0918732   -0.1524930703E-03
 108.2186661   -0.1589202584E-03
 108.3454590   -0.1657640532E-03
 108.4722519   -0.1729186624E-03
 108.5990448   -0.1802706247E-03
 108.7258377   -0.1877015893E-03
 108.8526306   -0.1950911101E-03
 108.9794235   -0.2023193956E-03
 109.1062164   -0.2092701907E-03
 109.2330093   -0.2158334100E-03
 109.3598022   -0.2219074668E-03
 109.4865952   -0.2274014114E-03
 109.6133881   -0.2322365617E-03
 109.7401810   -0.2363477688E-03
 109.8669739   -0.2396841883E-03
 109.9937668   -0.2422096441E-03
 110.1205597   -0.2439024684E-03
 110.2473526   -0.2447550360E-03
 110.3741455   -0.2447727893E-03
 110.5009384   -0.2439731616E-03
 110.6277313   -0.2423842088E-03