 -4.500000000   0.8933800062E-19
 -4.373207569   0.8930992818E-19
 -4.246414661   0.8925552813E-19
 -4.119622231   0.8918004790E-19
 -3.992829323   0.8906263995E-19
 -3.866036654   0.8889756572E-19
 -3.739243984   0.8953152211E-19
 -3.612451553   0.9524404435E-19
 -3.485658884   0.1163427205E-18
 -3.358866215   0.1646700499E-18
 -3.232073545   0.2344000313E-18
 -3.105280876   0.2749705003E-18
 -2.978488207   0.1883567027E-18
 -2.851695538   -0.1096041841E-18
 -2.724902868   -0.5695661192E-18
 -2.598110199   -0.9298973161E-18
 -2.471317530   -0.8450552618E-18
 -2.344524860   -0.3205137724E-18
 -2.217732191   -0.3150299268E-18
 -2.090939522   -0.3081475877E-17
 -1.964146972   -0.1172564004E-16
 -1.837354302   -0.2876885532E-16
 -1.710561633   -0.5415214973E-16
 -1.583768964   -0.8375353918E-16
 -1.456976295   -0.1096321957E-15
 -1.330183744   -0.1226174688E-15
 -1.203391075   -0.1167329192E-15
 -1.076598406   -0.9384796169E-16
 -0.9498057365   -0.6641850699E-16
 -0.8230130672   -0.5639999320E-16
 -0.6962204576   -0.8918197482E-16
 -0.5694277883   -0.1825092495E-15
 -0.4426351190   -0.3319408830E-15
 -0.3158424795   -0.4968270693E-15
 -0.1890498251   -0.5939684076E-15
 -0.6225717068E-01   -0.5085993979E-15
 0.6453548372E-01   -0.1313651751E-15
 0.1913281381   0.5774148427E-15
 0.3181207776   0.1509157226E-14
 0.4449134469   0.2344263420E-14
 0.5717061162   0.2547060471E-14
 0.6984987259   0.1456638430E-14
 0.8252913952   -0.1513121552E-14
 0.9520840645   -0.6593722049E-14
 1.078876734   -0.1337839836E-13
 1.205669403   -0.2064026338E-13
 1.332461953   -0.2635211148E-13
 1.459254622   -0.2795965973E-13
 1.586047292   -0.2288028098E-13
 1.712839961   -0.9114796185E-14
 1.839632630   0.1419764862E-13
 1.966425300   0.4645639274E-13
 2.093217850   0.8562964384E-13
 2.220010519   0.1286666764E-12
 2.346803188   0.1722201890E-12
 2.473595858   0.2135386052E-12
 2.600388527   0.2513734934E-12
 2.727181196   0.2867854066E-12
 2.853973866   0.3237954067E-12
 2.980766535   0.3698796369E-12
 3.107559204   0.4363071590E-12
 3.234351873   0.5382676726E-12
 3.361144543   0.6946510966E-12
 3.487936974   0.9272685701E-12
 3.614729643   0.1259306136E-11
 3.741522312   0.1712902715E-11
 3.868314981   0.2305946016E-11
 3.995107651   0.3048447779E-11
 4.121900558   0.3939122032E-11
 4.248692989   0.4962974042E-11
 4.375485420   0.6090780224E-11
 4.502278328   0.7281224235E-11
 4.629070759   0.8486190049E-11
 4.755863667   0.9659227411E-11
 4.882656097   0.1076662457E-10
 5.009449005   0.1179976949E-10
 5.136241436   0.1278679853E-10
 5.263034344   0.1380092308E-10
 5.389826775   0.1496266305E-10
 5.516619682   0.1643354203E-10
 5.643412113   0.1839982680E-10
 5.770205021   0.2104673553E-10
 5.896997452   0.2452566102E-10
 6.023790359   0.2891932874E-10
 6.150582790   0.3421150169E-10
 6.277375221   0.4026833381E-10
 6.404168129   0.4683719732E-10
 6.530960560   0.5356557212E-10
 6.657753468   0.6003770398E-10
 6.784545898   0.6582090428E-10
 6.911338806   0.7050815487E-10
 7.038131237   0.7374047900E-10
 7.164924145   0.7519285194E-10
 7.291716576   0.7451207706E-10
 7.418509483   0.7120438267E-10
 7.545301914   0.6448278717E-10
 7.672094822   0.5309808149E-10
 7.798887253   0.3518854652E-10
 7.925679684   0.8190005965E-11
 8.052472115   -0.3115418687E-10
 8.179265022   -0.8665525242E-10
 8.306057930   -0.1624057971E-09
 8.432850838   -0.2623924411E-09
 8.559642792   -0.3900441636E-09
 8.686435699   -0.5477915344E-09
 8.813228607   -0.7367255694E-09
 8.940021515   -0.9564399273E-09
 9.066813469   -0.1205116895E-08
 9.193606377   -0.1479867562E-08
 9.320399284   -0.1777280101E-08
 9.447192192   -0.2094060925E-08
 9.573984146   -0.2427588797E-08
 9.700777054   -0.2776172403E-08
 9.827569962   -0.3138788340E-08
 9.954361916   -0.3514112334E-08
 10.08115482   -0.3898746215E-08
 10.20794773   -0.4284640642E-08
 10.33474064   -0.4655857477E-08
 10.46153259   -0.4984949342E-08
 10.58832550   -0.5229341404E-08
 10.71511841   -0.5328194774E-08
 10.84191132   -0.5200203823E-08
 10.96870327   -0.4742783943E-08
 11.09549618   -0.3832992590E-08
 11.22228909   -0.2330377447E-08
 11.34908199   -0.8183574651E-10
 11.47587395   0.3071648269E-08
 11.60266685   0.7286599324E-08
 11.72945976   0.1270731698E-07
 11.85625172   0.1945524630E-07
 11.98304462   0.2761801454E-07
 12.10983753   0.3723864594E-07
 12.23663044   0.4830588907E-07
 12.36342239   0.6074641590E-07
 12.49021530   0.7442038452E-07
 12.61700821   0.8912177663E-07
 12.74380112   0.1045855029E-06
 12.87059307   0.1205035431E-06
 12.99738598   0.1365526003E-06
 13.12417889   0.1524361721E-06
 13.25097084   0.1679430142E-06
 13.37776375   0.1830249090E-06
 13.50455666   0.1978945221E-06
 13.63134956   0.2131450998E-06
 13.75814152   0.2298908157E-06
 13.88493443   0.2499269840E-06
 14.01172733   0.2759071549E-06
 14.13852024   0.3115331140E-06
 14.26531219   0.3617527398E-06
 14.39210510   0.4329593537E-06
 14.51889801   0.5331855846E-06
 14.64569092   0.6722837043E-06
 14.77248287   0.8620862104E-06
 14.89927578   0.1116533440E-05
 15.02606869   0.1451764660E-05
 15.15286064   0.1886161840E-05
 15.27965355   0.2440340722E-05
 15.40644646   0.3137078693E-05
 15.53323936   0.4001180059E-05
 15.66003132   0.5059262548E-05
 15.78682423   0.6339475931E-05
 15.91361713   0.7871144589E-05
 16.04040909   0.9684335055E-05
 16.16720200   0.1180934851E-04
 16.29399490   0.1427616462E-04
 16.42078781   0.1711379991E-04
 16.54758072   0.2034965655E-04
 16.67437363   0.2400881203E-04
 16.80116463   0.2811332524E-04
 16.92795753   0.3268151704E-04
 17.05475044   0.3772730997E-04
 17.18154335   0.4325959526E-04
 17.30833626   0.4928172712E-04
 17.43512917   0.5579105346E-04
 17.56192207   0.6277863577E-04
 17.68871498   0.7022909995E-04
 17.81550598   0.7812063996E-04
 17.94229889   0.8642519242E-04
 18.06909180   0.9510892414E-04
 18.19588470   0.1041326759E-03
 18.32267761   0.1134528793E-03
 18.44947052   0.1230223570E-03
 18.57626343   0.1327914943E-03
 18.70305443   0.1427094248E-03
 18.82984734   0.1527252170E-03
 18.95664024   0.1627893216E-03
 19.08343315   0.1728547213E-03
 19.21022606   0.1828782406E-03
 19.33701897   0.1928216807E-03
 19.46381187   0.2026526490E-03
 19.59060478   0.2123455197E-03
 19.71739578   0.2218818117E-03
 19.84418869   0.2312505239E-03
 19.97098160   0.2404481638E-03
 20.09777451   0.2494783548E-03
 20.22456741   0.2583514142E-03
 20.35136032   0.2670834947E-03
 20.47815323   0.2756955510E-03
 20.60494423   0.2842122049E-03
 20.73173714   0.2926603192E-03
 20.85853004   0.3010676010E-03
 20.98532295   0.3094612621E-03
 21.11211586   0.3178666520E-03
 21.23890877   0.3263059189E-03
 21.36570168   0.3347971360E-03
 21.49249458   0.3433533711E-03
 21.61928558   0.3519821621E-03
 21.74607849   0.3606853425E-03
 21.87287140   0.3694589541E-03
 21.99966431   0.3782938293E-03
 22.12645721   0.3871759400E-03
 22.25325012   0.3960873873E-03
 22.38004303   0.4050076241E-03
 22.50683403   0.4139142402E-03
 22.63362694   0.4227845639E-03
 22.76041985   0.4315966507E-03
 22.88721275   0.4403305065E-03
 23.01400566   0.4489692801E-03
 23.14079857   0.4574998748E-03
 23.26759148   0.4659139086E-03
 23.39438438   0.4742079182E-03
 23.52117538   0.4823838244E-03
 23.64796829   0.4904487869E-03
 23.77476120   0.4984150291E-03
 23.90155411   0.5062996061E-03
 24.02834702   0.5141240545E-03
 24.15513992   0.5219135201E-03
 24.28193283   0.5296964082E-03
 24.40872383   0.5375035107E-03
 24.53551674   0.5453676567E-03
 24.66230965   0.5533230724E-03
 24.78910255   0.5614046822E-03
 24.91589546   0.5696477019E-03
 25.04268837   0.5780871725E-03
 25.16948128   0.5867574946E-03
 25.29627419   0.5956920795E-03
 25.42306519   0.6049225922E-03
 25.54985809   0.6144788349E-03
 25.67665100   0.6243876996E-03
 25.80344391   0.6346727605E-03
 25.93023682   0.6453532260E-03
 26.05702972   0.6564429495E-03
 26.18382263   0.6679491489E-03
 26.31061363   0.6798713584E-03
 26.43740654   0.6921996828E-03
 26.56419945   0.7049134001E-03
 26.69099236   0.7179792738E-03
 26.81778526   0.7313500973E-03
 26.94457817   0.7449627738E-03
 27.07137108   0.7587376167E-03
 27.19816399   0.7725763135E-03
 27.32495499   0.7863618084E-03
 27.45174789   0.7999573718E-03
 27.57854080   0.8132064249E-03
 27.70533371   0.8259330643E-03
 27.83212662   0.8379428764E-03
 27.95891953   0.8490240434E-03
 28.08571243   0.8589495555E-03
 28.21250343   0.8674793644E-03
 28.33929634   0.8743631770E-03
 28.46608925   0.8793438901E-03
 28.59288216   0.8821608499E-03
 28.71967506   0.8825539262E-03
 28.84646797   0.8802674129E-03
 28.97326088   0.8750536945E-03
 29.10005379   0.8666779031E-03
 29.22684479   0.8549214108E-03
 29.35363770   0.8395852637E-03
 29.48043060   0.8204940241E-03
 29.60722351   0.7974985056E-03
 29.73401642   0.7704785094E-03
 29.86080933   0.7393449196E-03
 29.98760223   0.7040417986E-03
 30.11439323   0.6645472604E-03
 30.24118614   0.6208746345E-03
 30.36797905   0.5730729899E-03
 30.49477196   0.5212267861E-03
 30.62156487   0.4654559598E-03
 30.74835777   0.4059150524E-03
 30.87515068   0.3427923075E-03
 31.00194168   0.2763084194E-03
 31.12873459   0.2067151072E-03
 31.25552750   0.1342933683E-03
 31.38232040   0.5935169975E-04
 31.50911331   -0.1777607940E-04
 31.63590622   -0.9673282329E-04
 31.76269913   -0.1771404204E-03
 31.88949203   -0.2586022310E-03
 32.01628494   -0.3407056211E-03
 32.14307785   -0.4230245540E-03
 32.26987076   -0.5051224725E-03
 32.39666367   -0.5865550484E-03
 32.52345276   -0.6668734131E-03
 32.65024567   -0.7456272724E-03
 32.77703857   -0.8223680779E-03
 32.90383148   -0.8966526366E-03
 33.03062439   -0.9680467192E-03
 33.15741730   -0.1036128844E-02
 33.28421021   -0.1100493595E-02
 33.41100311   -0.1160755870E-02
 33.53779602   -0.1216554316E-02
 33.66458893   -0.1267555170E-02
 33.79138184   -0.1313455869E-02
 33.91817474   -0.1353988191E-02
 34.04496765   -0.1388921635E-02
 34.17176056   -0.1418066211E-02
 34.29855347   -0.1441274071E-02
 34.42534256   -0.1458442770E-02
 34.55213547   -0.1469515613E-02
 34.67892838   -0.1474482589E-02
 34.80572128   -0.1473380951E-02
 34.93251419   -0.1466294867E-02
 35.05930710   -0.1453354373E-02
 35.18610001   -0.1434733276E-02
 35.31289291   -0.1410647645E-02
 35.43968582   -0.1381352893E-02
 35.56647873   -0.1347139711E-02
 35.69327164   -0.1308331266E-02
 35.82006454   -0.1265278435E-02
 35.94685745   -0.1218355144E-02
 36.07365036   -0.1167954295E-02
 36.20044327   -0.1114482409E-02
 36.32723236   -0.1058354392E-02
 36.45402527   -0.9999893373E-03
 36.58081818   -0.9398057009E-03
 36.70761108   -0.8782161749E-03
 36.83440399   -0.8156241965E-03
 36.96119690   -0.7524196408E-03
 37.08798981   -0.6889756769E-03
 37.21478271   -0.6256459747E-03
 37.34157562   -0.5627620267E-03
 37.46836853   -0.5006319261E-03
 37.59516144   -0.4395387077E-03
 37.72195435   -0.3797398240E-03
 37.84874725   -0.3214669705E-03
 37.97554016   -0.2649266389E-03
 38.10232925   -0.2103005827E-03
 38.22912216   -0.1577472722E-03
 38.35591507   -0.1074030224E-03
 38.48270798   -0.5938379036E-04
 38.60950089   -0.1378673096E-04
 38.73629379   0.2930810842E-04
 38.86308670   0.6983610365E-04
 38.98987961   0.1077467023E-03
 39.11667252   0.1430021512E-03
 39.24346542   0.1755765115E-03
 39.37025833   0.2054550569E-03
 39.49705124   0.2326338581E-03
 39.62384415   0.2571197401E-03
 39.75063705   0.2789306163E-03
 39.87742996   0.2980957797E-03
 40.00421906   0.3146566160E-03
 40.13101196   0.3286673164E-03
 40.25780487   0.3401956055E-03
 40.38459778   0.3493232944E-03
 40.51139069   0.3561468329E-03
 40.63818359   0.3607774561E-03
 40.76497650   0.3633410088E-03
 40.89176941   0.3639772767E-03
 41.01856232   0.3628389386E-03
 41.14535522   0.3600899654E-03
 41.27214813   0.3559035831E-03
 41.39894104   0.3504594497E-03
 41.52573395   0.3439409775E-03
 41.65252686   0.3365316079E-03
 41.77931976   0.3284112900E-03
 41.90610886   0.3197526676E-03
 42.03290176   0.3107173252E-03
 42.15969467   0.3014520917E-03
 42.28648758   0.2920856932E-03
 42.41328049   0.2827259013E-03
 42.54007339   0.2734572045E-03
 42.66686630   0.2643392072E-03
 42.79365921   0.2554058738E-03
 42.92045212   0.2466656442E-03
 43.04724503   0.2381023660E-03
 43.17403793   0.2296772291E-03
 43.30083084   0.2213316911E-03
 43.42762375   0.2129908971E-03
 43.55441666   0.2045680740E-03
 43.68120956   0.1959693618E-03
 43.80799866   0.1870990382E-03
 43.93479156   0.1778649166E-03
 44.06158447   0.1681836584E-03
 44.18837738   0.1579860545E-03
 44.31517029   0.1472217555E-03
 44.44196320   0.1358632871E-03
 44.56875610   0.1239095291E-03
 44.69554901   0.1113880426E-03
 44.82234192   0.9835640958E-04
 44.94913483   0.8490266919E-04
 45.07592773   0.7114436448E-04
 45.20272064   0.5722663627E-04
 45.32951355   0.4331930541E-04
 45.45630646   0.2961293467E-04
 45.58309937   0.1631416671E-04
 45.70988846   0.3640377145E-05
 45.83668137   -0.8186086234E-05
 45.96347427   -0.1894395427E-04
 46.09026718   -0.2841913374E-04
 46.21706009   -0.3641061994E-04
 46.34385300   -0.4273620289E-04
 46.47064590   -0.4723754682E-04
 46.59743881   -0.4978472498E-04
 46.72423172   -0.5027995576E-04
 46.85102463   -0.4866054587E-04
 46.97781754   -0.4490090578E-04
 47.10461044   -0.3901367381E-04
 47.23140335   -0.3104990901E-04
 47.35819626   -0.2109845809E-04
 47.48498917   -0.9284437510E-05
 47.61177826   0.4232970241E-05
 47.73857117   0.1926341065E-04
 47.86536407   0.3558878234E-04
 47.99215698   0.5296722884E-04
 48.11894989   0.7113742322E-04
 48.24574280   0.8982316649E-04
 48.37253571   0.1087382334E-03
 48.49932861   0.1275913091E-03
 48.62612152   0.1460909261E-03
 48.75291443   0.1639504917E-03
 48.87970734   0.1808931120E-03
 49.00650024   0.1966562704E-03
 49.13329315   0.2109962661E-03
 49.26008606   0.2236924047E-03
 49.38687897   0.2345506800E-03
 49.51366806   0.2434071066E-03
 49.64046097   0.2501304552E-03
 49.76725388   0.2546245232E-03
 49.89404678   0.2568296040E-03
 50.02083969   0.2567234042E-03
 50.14763260   0.2543212613E-03
 50.27442551   0.2496755042E-03
 50.40121841   0.2428743028E-03
 50.52801132   0.2340396459E-03
 50.65480423   0.2233248088E-03
 50.78159714   0.2109111811E-03
 50.90839005   0.1970045269E-03
 51.03518295   0.1818308810E-03
 51.16197586   0.1656320965E-03
 51.28876877   0.1486610417E-03
 51.41555786   0.1311768428E-03
 51.54235077   0.1134398844E-03
 51.66914368   0.9570715338E-04
 51.79593658   0.7822751650E-04
 51.92272949   0.6123752974E-04
 52.04952240   0.4495747271E-04
 52.17631531   0.2958795449E-04
 52.30310822   0.1530695044E-04
 52.42990112   0.2267559694E-05
 52.55669403   -0.9403700460E-05
 52.68348694   -0.1960798909E-04
 52.81027985   -0.2827452590E-04
 52.93707275   -0.3536040094E-04
 53.06386566   -0.4084984903E-04
 53.19065857   -0.4475294190E-04
 53.31744766   -0.4710382200E-04
 53.44424057   -0.4795860877E-04
 53.57103348   -0.4739295036E-04
 53.69782639   -0.4549942969E-04
 53.82461929   -0.4238481415E-04
 53.95141220   -0.3816731623E-04
 54.07820511   -0.3297388321E-04
 54.20499802   -0.2693759052E-04
 54.33179092   -0.2019528620E-04
 54.45858383   -0.1288535987E-04
 54.58537674   -0.5145783234E-05
 54.71216965   0.2887620212E-05
 54.83896255   0.1108268771E-04
 54.96575546   0.1931224688E-04
 55.09254837   0.2745524034E-04
 55.21933746   0.3539776662E-04
 55.34613037   0.4303401147E-04
 55.47292328   0.5026710642E-04
 55.59971619   0.5700994006E-04
 55.72650909   0.6318598753E-04
 55.85330200   0.6873006350E-04
 55.98009491   0.7358903531E-04
 56.10688782   0.7772250683E-04
 56.23368073   0.8110333147E-04
 56.36047363   0.8371799777E-04
 56.48726654   0.8556683315E-04
 56.61405945   0.8666393842E-04
 56.74085236   0.8703688945E-04
 56.86764526   0.8672608965E-04
 56.99443817   0.8578386041E-04
 57.12122726   0.8427316061E-04
 57.24802017   0.8226613136E-04
 57.37481308   0.7984229887E-04
 57.50160599   0.7708652993E-04
 57.62839890   0.7408695819E-04
 57.75519180   0.7093269232E-04
 57.88198471   0.6771161134E-04
 58.00877762   0.6450824731E-04
 58.13557053   0.6140171172E-04
 58.26236343   0.5846397107E-04
 58.38915634   0.5575835530E-04
 58.51594925   0.5333843728E-04
 58.64274216   0.5124726886E-04
 58.76953506   0.4951708252E-04
 58.89632797   0.4816939690E-04
 59.02311707   0.4721546793E-04
 59.14990997   0.4665719098E-04
 59.27670288   0.4648824688E-04
 59.40349579   0.4669553527E-04
 59.53028870   0.4726077896E-04
 59.65708160   0.4816219734E-04
 59.78387451   0.4937613994E-04
 59.91066742   0.5087863246E-04
 60.03746033   0.5264664651E-04
 60.16425323   0.5465919457E-04
 60.29104614   0.5689793397E-04
 60.41783905   0.5934745059E-04
 60.54463196   0.6199505151E-04
 60.67142487   0.6483016477E-04
 60.79821777   0.6784329162E-04
 60.92500687   0.7102462405E-04
 61.05179977   0.7436236046E-04
 61.17859268   0.7784087211E-04
 61.30538559   0.8143870946E-04
 61.43217850   0.8512674685E-04
 61.55897141   0.8886645082E-04
 61.68576431   0.9260843945E-04
 61.81255722   0.9629149281E-04
 61.93935013   0.9984212375E-04
 62.06614304   0.1031746579E-03
 62.19293594   0.1061921139E-03
 62.31972885   0.1087876444E-03
 62.44652176   0.1108467550E-03
 62.57331467   0.1122501344E-03
 62.70010757   0.1128771110E-03
 62.82689667   0.1126094721E-03
 62.95368958   0.1113357721E-03
 63.08048248   0.1089556608E-03
 63.20727539   0.1053843662E-03
 63.33406830   0.1005569284E-03
 63.46086121   0.9443215095E-04
 63.58765411   0.8699598402E-04
 63.71444702   0.7826429646E-04
 63.84123993   0.6828480400E-04
 63.96803284   0.5713808423E-04
 64.09482574   0.4493760935E-04
 64.22161865   0.3182878208E-04
 64.34841156   0.1798686571E-04
 64.47520447   0.3613982017E-05
 64.60199738   -0.1106483069E-04
 64.72879028   -0.2580634282E-04
 64.85558319   -0.4035451639E-04
 64.98237610   -0.5444636918E-04
 65.10916901   -0.6781818956E-04
 65.23596191   -0.8021178655E-04
 65.36275482   -0.9138070163E-04
 65.48954773   -0.1010960914E-03
 65.61633301   -0.1091521772E-03
 65.74312592   -0.1153710691E-03
 65.86991882   -0.1196067606E-03
 65.99671173   -0.1217483659E-03
 66.12350464   -0.1217222889E-03
 66.25029755   -0.1194935103E-03
 66.37709045   -0.1150657699E-03
 66.50388336   -0.1084809483E-03
 66.63067627   -0.9981740732E-04
 66.75746918   -0.8918761159E-04
 66.88426208   -0.7673510845E-04
 67.01105499   -0.6263084651E-04
 67.13784790   -0.4706918480E-04
 67.26464081   -0.3026358172E-04
 67.39143372   -0.1244216310E-04
 67.51822662   0.6156676591E-05
 67.64501953   0.2528855657E-04
 67.77181244   0.4470717977E-04
 67.89860535   0.6416808901E-04
 68.02539825   0.8343200170E-04
 68.15219116   0.1022678334E-03
 68.27898407   0.1204552318E-03
 68.40577698   0.1377867302E-03
 68.53256989   0.1540695084E-03
 68.65936279   0.1691268408E-03
 68.78615570   0.1827992237E-03
 68.91294861   0.1949452417E-03
 69.03974152   0.2054424403E-03
 69.16653442   0.2141877485E-03
 69.29332733   0.2210981038E-03
 69.42011261   0.2261109330E-03
 69.54690552   0.2291845449E-03
 69.67369843   0.2302985231E-03
 69.80049133   0.2294542210E-03
 69.92728424   0.2266748779E-03
 70.05407715   0.2220060269E-03
 70.18087006   0.2155153488E-03
 70.30766296   0.2072926436E-03
 70.43445587   0.1974493352E-03
 70.56124878   0.1861176279E-03
 70.68804169   0.1734494435E-03
 70.81483459   0.1596147049E-03
 70.94162750   0.1447994873E-03
 71.06842041   0.1292034431E-03
 71.19521332   0.1130370001E-03
 71.32200623   0.9651808068E-04
 71.44879913   0.7986857963E-04
 71.57559204   0.6331063196E-04
 71.70238495   0.4706267646E-04
 71.82917786   0.3133559949E-04
 71.95597076   0.1632898056E-04
 72.08276367   0.2227480763E-05
 72.20955658   -0.1080230686E-04
 72.33634949   -0.2261468035E-04
 72.46314240   -0.3308700980E-04
 72.58993530   -0.4212143176E-04
 72.71672821   -0.4964588516E-04
 72.84352112   -0.5561460057E-04
 72.97031403   -0.6000786016E-04
 73.09710693   -0.6283135735E-04
 73.22389221   -0.6411493814E-04
 73.35068512   -0.6391106581E-04
 73.47747803   -0.6229282008E-04
 73.60427094   -0.5935178342E-04
 73.73106384   -0.5519570914E-04
 73.85785675   -0.4994616029E-04
 73.98464966   -0.4373608317E-04
 74.11144257   -0.3670746082E-04
 74.23823547   -0.2900905565E-04
 74.36502838   -0.2079419937E-04
 74.49182129   -0.1221870662E-04
 74.61861420   -0.3438862905E-05
 74.74540710   0.5390541446E-05
 74.87220001   0.1411803623E-04
 74.99899292   0.2259733265E-04
 75.12578583   0.3068915976E-04
 75.25257874   0.3826298416E-04
 75.37937164   0.4519880531E-04
 75.50616455   0.5138880442E-04
 75.63295746   0.5673897977E-04
 75.75975037   0.6117066368E-04
 75.88654327   0.6462185411E-04
 76.01333618   0.6704842963E-04
 76.14012909   0.6842507719E-04
 76.26692200   0.6874591782E-04
 76.39371490   0.6802490680E-04
 76.52050781   0.6629583368E-04
 76.64730072   0.6361197302E-04
 76.77409363   0.6004532770E-04
 76.90088654   0.5568559209E-04
 77.02767181   0.5063870412E-04
 77.15446472   0.4502506272E-04
 77.28125763   0.3897747592E-04
 77.40805054   0.3263878898E-04
 77.53484344   0.2615935409E-04
 77.66163635   0.1969428013E-04
 77.78842926   0.1340050494E-04
 77.91522217   0.7433831797E-05
 78.04201508   0.1945883241E-05
 78.16880798   -0.2918965265E-05
 78.29560089   -0.7026580533E-05
 78.42239380   -0.1025599067E-04
 78.54918671   -0.1250209971E-04
 78.67597961   -0.1367823097E-04
 78.80277252   -0.1371836424E-04
 78.92956543   -0.1257903023E-04
 79.05635834   -0.1024081848E-04
 79.18315125   -0.6709404715E-05
 79.30994415   -0.2016086228E-05
 79.43673706   0.3782252861E-05
 79.56352997   0.1060372233E-04
 79.69032288   0.1834265277E-04
 79.81711578   0.2687134111E-04
 79.94390869   0.3604243830E-04
 80.07070160   0.4569185330E-04
 80.19749451   0.5564213643E-04
 80.32428741   0.6570629193E-04
 80.45108032   0.7569193258E-04
 80.57787323   0.8540569979E-04
 80.70465851   0.9465780022E-04
 80.83145142   0.1032665314E-03
 80.95824432   0.1110627927E-03
 81.08503723   0.1178942548E-03
 81.21183014   0.1236292301E-03
 81.33862305   0.1281601581E-03
 81.46541595   0.1314063848E-03
 81.59220886   0.1333162945E-03
 81.71900177   0.1338688162E-03
 81.84579468   0.1330740197E-03
 81.97258759   0.1309729851E-03
 82.09938049   0.1276367693E-03
 82.22617340   0.1231646020E-03
 82.35296631   0.1176813967E-03
 82.47975922   0.1113343678E-03
 82.60655212   0.1042892764E-03
 82.73334503   0.9672590386E-04
 82.86013794   0.8883336704E-04
 82.98693085   0.8080496627E-04
 83.11372375   0.7283298328E-04
 83.24051666   0.6510355161E-04
 83.36730957   0.5779153798E-04
 83.49410248   0.5105591117E-04
 83.62089539   0.4503544187E-04
 83.74768829   0.3984505747E-04
 83.87448120   0.3557286618E-04
 84.00127411   0.3227803973E-04
 84.12806702   0.2998946002E-04
 84.25485992   0.2870543722E-04
 84.38165283   0.2839419358E-04
 84.50843811   0.2899538958E-04
 84.63523102   0.3042243588E-04
 84.76202393   0.3256556010E-04
 84.88881683   0.3529567039E-04
 85.01560974   0.3846858090E-04
 85.14240265   0.4192977940E-04
 85.26919556   0.4551928942E-04
 85.39598846   0.4907663606E-04
 85.52278137   0.5244569911E-04
 85.64957428   0.5547923502E-04
 85.77636719   0.5804300963E-04
 85.90316010   0.6001932343E-04
 86.02995300   0.6130998372E-04
 86.15674591   0.6183843652E-04
 86.28353882   0.6155123265E-04
 86.41033173   0.6041868619E-04
 86.53712463   0.5843477629E-04
 86.66391754   0.5561637590E-04
 86.79071045   0.5200189480E-04
 86.91750336   0.4764926416E-04
 87.04429626   0.4263360097E-04
 87.17108917   0.3704451228E-04
 87.29788208   0.3098313027E-04
 87.42467499   0.2455914910E-04
 87.55146790   0.1788774171E-04
 87.67826080   0.1108663400E-04
 87.80505371   0.4273318609E-05
 87.93184662   -0.2437479907E-05
 88.05863953   -0.8936048289E-05
 88.18543243   -0.1511960272E-04
 88.31221771   -0.2089383997E-04
 88.43901062   -0.2617411337E-04
 88.56580353   -0.3088623998E-04
 88.69259644   -0.3496696081E-04
 88.81938934   -0.3836406904E-04
 88.94618225   -0.4103627725E-04
 89.07297516   -0.4295284816E-04
 89.19976807   -0.4409303801E-04
 89.32656097   -0.4444547449E-04
 89.45335388   -0.4400744365E-04
 89.58014679   -0.4278422784E-04
 89.70693970   -0.4078847996E-04
 89.83373260   -0.3803971049E-04
 89.96052551   -0.3456392733E-04
 90.08731842   -0.3039340299E-04
 90.21411133   -0.2556656364E-04
 90.34090424   -0.2012807454E-04
 90.46769714   -0.1412896472E-04
 90.59449005   -0.7626807928E-05
 90.72128296   -0.6859226573E-06
 90.84807587   0.6622523870E-05
 90.97486877   0.1422048990E-04
 91.10166168   0.2202330506E-04
 91.22845459   0.2994011265E-04
 91.35524750   0.3787461537E-04
 91.48204041   0.4572617036E-04
 91.60883331   0.5339118070E-04
 91.73562622   0.6076486170E-04
 91.86241913   0.6774321082E-04
 91.98921204   0.7422528142E-04
 92.11599731   0.8011563477E-04
 92.24279022   0.8532679931E-04
 92.36958313   0.8978176629E-04
 92.49637604   0.9341628902E-04
 92.62316895   0.9618107288E-04
 92.74996185   0.9804348520E-04
 92.87675476   0.9898899589E-04
 93.00354767   0.9902198508E-04
 93.13034058   0.9816615056E-04
 93.25713348   0.9646424587E-04
 93.38392639   0.9397729445E-04
 93.51071930   0.9078327275E-04
 93.63751221   0.8697526209E-04
 93.76430511   0.8265917131E-04
 93.89109802   0.7795116835E-04
 94.01789093   0.7297471893E-04
 94.14468384   0.6785766163E-04
 94.27147675   0.6272902101E-04
 94.39826965   0.5771600991E-04
 94.52506256   0.5294109724E-04
 94.65185547   0.4851927588E-04
 94.77864838   0.4455560338E-04
 94.90544128   0.4114312469E-04
 95.03223419   0.3836108226E-04
 95.15902710   0.3627358456E-04
 95.28582001   0.3492858377E-04
 95.41261292   0.3435732287E-04
 95.53940582   0.3457412095E-04
 95.66619873   0.3557651507E-04
 95.79299164   0.3734573693E-04
 95.91977692   0.3984747673E-04
 96.04656982   0.4303287642E-04
 96.17336273   0.4683972656E-04
 96.30015564   0.5119395792E-04
 96.42694855   0.5601109297E-04
 96.55374146   0.6119794853E-04
 96.68053436   0.6665436376E-04
 96.80732727   0.7227494643E-04
 96.93412018   0.7795092824E-04
 97.06091309   0.8357197657E-04
 97.18770599   0.8902796981E-04
 97.31449890   0.9421079449E-04
 97.44129181   0.9901600424E-04
 97.56808472   0.1033444933E-03
 97.69487762   0.1071040679E-03
 97.82167053   0.1102108581E-03
 97.94846344   0.1125906929E-03
 98.07525635   0.1141803223E-03
 98.20204926   0.1149285090E-03
 98.32884216   0.1147969815E-03
 98.45563507   0.1137612708E-03
 98.58242798   0.1118113432E-03
 98.70922089   0.1089520665E-03
 98.83601379   0.1052035732E-03
 98.96280670   0.1006012681E-03
 99.08959961   0.9519579908E-04
 99.21639252   0.8905264258E-04
 99.34318542   0.8225142665E-04
 99.46997833   0.7488499978E-04
 99.59677124   0.6705817214E-04
 99.72355652   0.5888609303E-04
 99.85034943   0.5049231186E-04
 99.97714233   0.4200656986E-04
 100.1039352   0.3356227171E-04
 100.2307281   0.2529375888E-04
 100.3575211   0.1733345744E-04
 100.4843140   0.9808899449E-05
 100.6111069   0.2839833996E-05
 100.7378998   -0.3464577958E-05
 100.8646927   -0.9008302186E-05
 100.9914856   -0.1371072267E-04
 101.1182785   -0.1750844604E-04
 101.2450714   -0.2035675243E-04
 101.3718643   -0.2223048978E-04
 101.4986572   -0.2312443939E-04
 101.6254501   -0.2305315320E-04
 101.7522430   -0.2205026067E-04
 101.8790359   -0.2016730832E-04
 102.0058289   -0.1747210626E-04
 102.1326218   -0.1404669001E-04
 102.2594147   -0.9984962162E-05
 102.3862076   -0.5390064871E-05
 102.5130005   -0.3715440471E-06
 102.6397934   0.4957576493E-05
 102.7665863   0.1048369268E-04
 102.8933792   0.1609557148E-04
 103.0201721   0.2168701030E-04
 103.1469650   0.2715943265E-04
 103.2737579   0.3242410457E-04
 103.4005508   0.3740400643E-04
 103.5273361   0.4203533172E-04
 103.6541290   0.4626852751E-04
 103.7809219   0.5006887295E-04
 103.9077148   0.5341654105E-04
 104.0345078   0.5630620217E-04
 104.1613007   0.5874620183E-04
 104.2880936   0.6075720012E-04
 104.4148865   0.6237046182E-04
 104.5416794   0.6362581189E-04
 104.6684723   0.6456929987E-04
 104.7952652   0.6525063509E-04
 104.9220581   0.6572056009E-04
 105.0488510   0.6602820213E-04
 105.1756439   0.6621849025E-04
 105.3024368   0.6632976874E-04
 105.4292297   0.6639177445E-04
 105.5560226   0.6642397784E-04
 105.6828156   0.6643442612E-04
 105.8096085   0.6641908840E-04
 105.9364014   0.6636187027E-04
 106.0631943   0.6623526133E-04
 106.1899872   0.6600151391E-04
 106.3167801   0.6561449118E-04
 106.4435730   0.6502196629E-04
 106.5703659   0.6416831457E-04
 106.6971588   0.6299753295E-04
 106.8239517   0.6145642692E-04
 106.9507446   0.5949774277E-04
 107.0775375   0.5708320532E-04
 107.2043304   0.5418631190E-04
 107.3311157   0.5079463881E-04
 107.4579086   0.4691170034E-04
 107.5847015   0.4255815657E-04
 107.7114944   0.3777241363E-04
 107.8382874   0.3261046004E-04
 107.9650803   0.2714507536E-04
 108.0918732   0.2146434235E-04
 108.2186661   0.1566960236E-04
 108.3454590   0.9872850569E-05
 108.4722519   0.4193770565E-05
 108.5990448   -0.1243511633E-05
 108.7258377   -0.6313919584E-05
 108.8526306   -0.1089483430E-04
 108.9794235   -0.1486952351E-04
 109.1062164   -0.1813035851E-04
 109.2330093   -0.2058172140E-04
 109.3598022   -0.2214259621E-04
 109.4865952   -0.2274875260E-04
 109.6133881   -0.2235441934E-04
 109.7401810   -0.2093356670E-04
 109.8669739   -0.1848049033E-04
 109.9937668   -0.1501016231E-04
 110.1205597   -0.1055779467E-04
 110.2473526   -0.5178115316E-05
 110.3741455   0.1055930170E-05
 110.5009384   0.8054895261E-05
 110.6277313   0.1571486791E-04
 110.7545242   0.2391997259E-04
 110.8813171   0.3254505646E-04
 111.0081024   0.4145859202E-04
 111.1348953   0.5052575943E-04
 111.2616882   0.5961147690E-04
 111.3884811   0.6858350389E-04
 111.5152740   0.7731524965E-04
 111.6420670   0.8568838530E-04
 111.7688599   0.9359519026E-04
 111.8956528   0.1009404150E-03
 112.0224457   0.1076426779E-03
 112.1492386   0.1136354258E-03
 112.2760315   0.1188673486E-03
 112.4028244   0.1233023359E-03
 112.5296173   0.1269188797E-03
 112.6564102   0.1297092385E-03
 112.7832031   0.1316780836E-03
 112.9099960   0.1328410144E-03