 -4.500000000   0.1044406348E-16
 -4.373207569   0.1044408168E-16
 -4.246414661   0.1044411145E-16
 -4.119622231   0.1044414371E-16
 -3.992829323   0.1044416936E-16
 -3.866036654   0.1044462596E-16
 -3.739243984   0.1044678656E-16
 -3.612451553   0.1044977268E-16
 -3.485658884   0.1044232392E-16
 -3.358866215   0.1040089871E-16
 -3.232073545   0.1032532915E-16
 -3.105280876   0.1034147406E-16
 -2.978488207   0.1084650670E-16
 -2.851695538   0.1256984321E-16
 -2.724902868   0.1633203434E-16
 -2.598110199   0.2230696339E-16
 -2.471317530   0.2881898578E-16
 -2.344524860   0.3114893849E-16
 -2.217732191   0.2135354840E-16
 -2.090939522   -0.9595061014E-17
 -1.964146972   -0.6645312284E-16
 -1.837354302   -0.1417987681E-15
 -1.710561633   -0.2088973036E-15
 -1.583768964   -0.2213230520E-15
 -1.456976295   -0.1258259238E-15
 -1.330183744   0.1090542677E-15
 -1.203391075   0.4551985763E-15
 -1.076598406   0.7957253558E-15
 -0.9498057365   0.9289474919E-15
 -0.8230130672   0.6248761634E-15
 -0.6962204576   -0.2666168286E-15
 -0.5694277883   -0.1687114507E-14
 -0.4426351190   -0.3277996965E-14
 -0.3158424795   -0.4389273487E-14
 -0.1890498251   -0.4227690094E-14
 -0.6225717068E-01   -0.2131843862E-14
 0.6453548372E-01   0.2096358899E-14
 0.1913281381   0.7914685177E-14
 0.3181207776   0.1393129911E-13
 0.4449134469   0.1803850682E-13
 0.5717061162   0.1780041602E-13
 0.6984987259   0.1103707647E-13
 0.8252913952   -0.3505965295E-14
 0.9520840645   -0.2554567682E-13
 1.078876734   -0.5286229963E-13
 1.205669403   -0.8126167111E-13
 1.332461953   -0.1050165543E-12
 1.459254622   -0.1178333825E-12
 1.586047292   -0.1142718461E-12
 1.712839961   -0.9139114839E-13
 1.839632630   -0.5025130363E-13
 1.966425300   0.3176540418E-14
 2.093217850   0.5808605685E-13
 2.220010519   0.1001016219E-12
 2.346803188   0.1136500223E-12
 2.473595858   0.8506221985E-13
 2.600388527   0.5838637069E-14
 2.727181196   -0.1245143853E-12
 2.853973866   -0.2965329263E-12
 2.980766535   -0.4899803436E-12
 3.107559204   -0.6742607232E-12
 3.234351873   -0.8101273558E-12
 3.361144543   -0.8528537577E-12
 3.487936974   -0.7571523161E-12
 3.614729643   -0.4840729055E-12
 3.741522312   -0.9753456486E-14
 3.868314981   0.6647883199E-12
 3.995107651   0.1504463871E-11
 4.121900558   0.2433833517E-11
 4.248692989   0.3336174436E-11
 4.375485420   0.4059722610E-11
 4.502278328   0.4431576200E-11
 4.629070759   0.4277995493E-11
 4.755863667   0.3448204179E-11
 4.882656097   0.1837742415E-11
 5.009449005   -0.5926895259E-12
 5.136241436   -0.3806140732E-11
 5.263034344   -0.7687977858E-11
 5.389826775   -0.1205446853E-10
 5.516619682   -0.1667049832E-10
 5.643412113   -0.2127477014E-10
 5.770205021   -0.2561022748E-10
 5.896997452   -0.2945696118E-10
 6.023790359   -0.3266396528E-10
 6.150582790   -0.3517509894E-10
 6.277375221   -0.3704380552E-10
 6.404168129   -0.3843148022E-10
 6.530960560   -0.3958635156E-10
 6.657753468   -0.4080388111E-10
 6.784545898   -0.4237506179E-10
 6.911338806   -0.4453464333E-10
 7.038131237   -0.4742485224E-10
 7.164924145   -0.5109045478E-10
 7.291716576   -0.5551667806E-10
 7.418509483   -0.6071400327E-10
 7.545301914   -0.6684462012E-10
 7.672094822   -0.7437875316E-10
 7.798887253   -0.8426656595E-10
 7.925679684   -0.9811602919E-10
 8.052472115   -0.1183775578E-09
 8.179265022   -0.1485491730E-09
 8.306057930   -0.1934262750E-09
 8.432850838   -0.2594226223E-09
 8.559642792   -0.3549763816E-09
 8.686435699   -0.4910280516E-09
 8.813228607   -0.6815139564E-09
 8.940021515   -0.9437645110E-09
 9.066813469   -0.1298640750E-08
 9.193606377   -0.1770193103E-08
 9.320399284   -0.2384598297E-08
 9.447192192   -0.3168126206E-08
 9.573984146   -0.4143930532E-08
 9.700777054   -0.5327529973E-08
 9.827569962   -0.6720967782E-08
 9.954361916   -0.8305801380E-08
 10.08115482   -0.1003524908E-07
 10.20794773   -0.1182601128E-07
 10.33474064   -0.1355048873E-07
 10.46153259   -0.1503025970E-07
 10.58832550   -0.1603179101E-07
 10.71511841   -0.1626539614E-07
 10.84191132   -0.1538845673E-07
 10.96870327   -0.1301370212E-07
 11.09549618   -0.8723232803E-08
 11.22228909   -0.2088571316E-08
 11.34908199   0.7303358363E-08
 11.47587395   0.1981895892E-07
 11.60266685   0.3574261953E-07
 11.72945976   0.5523918389E-07
 11.85625172   0.7831698667E-07
 11.98304462   0.1047947791E-06
 12.10983753   0.1342767888E-06
 12.23663044   0.1661408930E-06
 12.36342239   0.1995448571E-06
 12.49021530   0.2334569302E-06
 12.61700821   0.2667156309E-06
 12.74380112   0.2981244620E-06
 12.87059307   0.3265855071E-06
 12.99738598   0.3512749913E-06
 13.12417889   0.3718615176E-06
 13.25097084   0.3887669209E-06
 13.37776375   0.4034645826E-06
 13.50455666   0.4188102594E-06
 13.63134956   0.4393956488E-06
 13.75814152   0.4719122728E-06
 13.88493443   0.5255118367E-06
 14.01172733   0.6121461524E-06
 14.13852024   0.7468682384E-06
 14.26531219   0.9480758649E-06
 14.39210510   0.1237680067E-05
 14.51889801   0.1641176823E-05
 14.64569092   0.2187611244E-05
 14.77248287   0.2909417844E-05
 14.89927578   0.3842127626E-05
 15.02606869   0.5023939593E-05
 15.15286064   0.6495156867E-05
 15.27965355   0.8297492059E-05
 15.40644646   0.1047325441E-04
 15.53323936   0.1306443301E-04
 15.66003132   0.1611170046E-04
 15.78682423   0.1965336196E-04
 15.91361713   0.2372427116E-04
 16.04040909   0.2835475243E-04
 16.16720200   0.3356953675E-04
 16.29399490   0.3938677037E-04
 16.42078781   0.4581710164E-04
 16.54758072   0.5286283704E-04
 16.67437363   0.6051729360E-04
 16.80116463   0.6876422412E-04
 16.92795753   0.7757740241E-04
 17.05475044   0.8692037227E-04
 17.18154335   0.9674637840E-04
 17.30833626   0.1069983991E-03
 17.43512917   0.1176094156E-03
 17.56192207   0.1285027829E-03
 17.68871498   0.1395927829E-03
 17.81550598   0.1507853303E-03
 17.94229889   0.1619788673E-03
 18.06909180   0.1730653748E-03
 18.19588470   0.1839315373E-03
 18.32267761   0.1944601390E-03
 18.44947052   0.2045315632E-03
 18.57626343   0.2140255529E-03
 18.70305443   0.2228230151E-03
 18.82984734   0.2308080293E-03
 18.95664024   0.2378700738E-03
 19.08343315   0.2439061500E-03
 19.21022606   0.2488231694E-03
 19.33701897   0.2525402233E-03
 19.46381187   0.2549909113E-03
 19.59060478   0.2561254660E-03
 19.71739578   0.2559127461E-03
 19.84418869   0.2543418668E-03
 19.97098160   0.2514235966E-03
 20.09777451   0.2471911721E-03
 20.22456741   0.2417007054E-03
 20.35136032   0.2350309660E-03
 20.47815323   0.2272825514E-03
 20.60494423   0.2185764606E-03
 20.73173714   0.2090519265E-03
 20.85853004   0.1988638105E-03
 20.98532295   0.1881791832E-03
 21.11211586   0.1771737734E-03
 21.23890877   0.1660278358E-03
 21.36570168   0.1549217995E-03
 21.49249458   0.1440318156E-03
 21.61928558   0.1335255074E-03
 21.74607849   0.1235576638E-03
 21.87287140   0.1142666151E-03
 21.99966431   0.1057708505E-03
 22.12645721   0.9816639067E-04
 22.25325012   0.9152494022E-04
 22.38004303   0.8589280333E-04
 22.50683403   0.8129052003E-04
 22.63362694   0.7771357923E-04
 22.76041985   0.7513375749E-04
 22.88721275   0.7350129454E-04
 23.01400566   0.7274767268E-04
 23.14079857   0.7278894918E-04
 23.26759148   0.7352945977E-04
 23.39438438   0.7486578397E-04
 23.52117538   0.7669076876E-04
 23.64796829   0.7889742847E-04
 23.77476120   0.8138260455E-04
 23.90155411   0.8405039989E-04
 24.02834702   0.8681495092E-04
 24.15513992   0.8960259584E-04
 24.28193283   0.9235362086E-04
 24.40872383   0.9502303874E-04
 24.53551674   0.9758096712E-04
 24.66230965   0.1000123011E-03
 24.78910255   0.1023157965E-03
 24.91589546   0.1045026511E-03
 25.04268837   0.1065945398E-03
 25.16948128   0.1086218399E-03
 25.29627419   0.1106209529E-03
 25.42306519   0.1126321949E-03
 25.54985809   0.1146972209E-03
 25.67665100   0.1168569434E-03
 25.80344391   0.1191493357E-03
 25.93023682   0.1216078017E-03
 26.05702972   0.1242595172E-03
 26.18382263   0.1271242218E-03
 26.31061363   0.1302134478E-03
 26.43740654   0.1335301349E-03
 26.56419945   0.1370682730E-03
 26.69099236   0.1408130338E-03
 26.81778526   0.1447412214E-03
 26.94457817   0.1488217240E-03
 27.07137108   0.1530166046E-03
 27.19816399   0.1572818728E-03
 27.32495499   0.1615687652E-03
 27.45174789   0.1658249530E-03
 27.57854080   0.1699958957E-03
 27.70533371   0.1740262087E-03
 27.83212662   0.1778612350E-03
 27.95891953   0.1814484276E-03
 28.08571243   0.1847390813E-03
 28.21250343   0.1876895112E-03
 28.33929634   0.1902628428E-03
 28.46608925   0.1924301323E-03
 28.59288216   0.1941718510E-03
 28.71967506   0.1954788167E-03
 28.84646797   0.1963533578E-03
 28.97326088   0.1968096622E-03
 29.10005379   0.1968745783E-03
 29.22684479   0.1965874253E-03
 29.35363770   0.1959998190E-03
 29.48043060   0.1951751619E-03
 29.60722351   0.1941874943E-03
 29.73401642   0.1931205043E-03
 29.86080933   0.1920653012E-03
 29.98760223   0.1911188592E-03
 30.11439323   0.1903814991E-03
 30.24118614   0.1899544441E-03
 30.36797905   0.1899372000E-03
 30.49477196   0.1904249075E-03
 30.62156487   0.1915057073E-03
 30.74835777   0.1932582818E-03
 30.87515068   0.1957494242E-03
 31.00194168   0.1990321616E-03
 31.12873459   0.2031440963E-03
 31.25552750   0.2081061975E-03
 31.38232040   0.2139220160E-03
 31.50911331   0.2205772616E-03
 31.63590622   0.2280402114E-03
 31.76269913   0.2362623054E-03
 31.88949203   0.2451792534E-03
 32.01628494   0.2547127660E-03
 32.14307785   0.2647724759E-03
 32.26987076   0.2752579749E-03
 32.39666367   0.2860613749E-03
 32.52345276   0.2970697824E-03
 32.65024567   0.3081677714E-03
 32.77703857   0.3192398290E-03
 32.90383148   0.3301727702E-03
 33.03062439   0.3408579214E-03
 33.15741730   0.3511933028E-03
 33.28421021   0.3610848798E-03
 33.41100311   0.3704483679E-03
 33.53779602   0.3792097268E-03
 33.66458893   0.3873061505E-03
 33.79138184   0.3946863580E-03
 33.91817474   0.4013101570E-03
 34.04496765   0.4071485600E-03
 34.17176056   0.4121829988E-03
 34.29855347   0.4164045386E-03
 34.42534256   0.4198128881E-03
 34.55213547   0.4224153236E-03
 34.67892838   0.4242255818E-03
 34.80572128   0.4252625513E-03
 34.93251419   0.4255492822E-03
 35.05930710   0.4251116479E-03
 35.18610001   0.4239778500E-03
 35.31289291   0.4221767886E-03
 35.43968582   0.4197378876E-03
 35.56647873   0.4166902800E-03
 35.69327164   0.4130621674E-03
 35.82006454   0.4088806745E-03
 35.94685745   0.4041717912E-03
 36.07365036   0.3989598481E-03
 36.20044327   0.3932678956E-03
 36.32723236   0.3871173831E-03
 36.45402527   0.3805287706E-03
 36.58081818   0.3735214996E-03
 36.70761108   0.3661140508E-03
 36.83440399   0.3583245561E-03
 36.96119690   0.3501705069E-03
 37.08798981   0.3416691907E-03
 37.21478271   0.3328380117E-03
 37.34157562   0.3236943157E-03
 37.46836853   0.3142558853E-03
 37.59516144   0.3045409103E-03
 37.72195435   0.2945681626E-03
 37.84874725   0.2843570546E-03
 37.97554016   0.2739277552E-03
 38.10232925   0.2633011609E-03
 38.22912216   0.2524991287E-03
 38.35591507   0.2415443305E-03
 38.48270798   0.2304604277E-03
 38.60950089   0.2192720858E-03
 38.73629379   0.2080050326E-03
 38.86308670   0.1966860727E-03
 38.98987961   0.1853433059E-03
 39.11667252   0.1740059815E-03
 39.24346542   0.1627048623E-03
 39.37025833   0.1514721807E-03
 39.49705124   0.1403417700E-03
 39.62384415   0.1293493406E-03
 39.75063705   0.1185325527E-03
 39.87742996   0.1079313006E-03
 40.00421906   0.9758778469E-04
 40.13101196   0.8754678129E-04
 40.25780487   0.7785564958E-04
 40.38459778   0.6856446998E-04
 40.51139069   0.5972593499E-04
 40.63818359   0.5139514178E-04
 40.76497650   0.4362929758E-04
 40.89176941   0.3648720303E-04
 41.01856232   0.3002861740E-04
 41.14535522   0.2431338544E-04
 41.27214813   0.1940046968E-04
 41.39894104   0.1534674084E-04
 41.52573395   0.1220565900E-04
 41.65252686   0.1002573026E-04
 41.77931976   0.8848861398E-05
 41.90610886   0.8708677342E-05
 42.03290176   0.9628839507E-05
 42.15969467   0.1162142053E-04
 42.28648758   0.1468531536E-04
 42.41328049   0.1880486707E-04
 42.54007339   0.2394879266E-04
 42.66686630   0.3006924089E-04
 42.79365921   0.3710139572E-04
 42.92045212   0.4496331894E-04
 43.04724503   0.5355630128E-04
 43.17403793   0.6276560453E-04
 43.30083084   0.7246183668E-04
 43.42762375   0.8250254905E-04
 43.55441666   0.9273456817E-04
 43.68120956   0.1029965133E-03
 43.80799866   0.1131218669E-03
 43.93479156   0.1229422196E-03
 44.06158447   0.1322907046E-03
 44.18837738   0.1410056138E-03
 44.31517029   0.1489340793E-03
 44.44196320   0.1559356024E-03
 44.56875610   0.1618854731E-03
 44.69554901   0.1666778262E-03
 44.82234192   0.1702284062E-03
 44.94913483   0.1724768808E-03
 45.07592773   0.1733885874E-03
 45.20272064   0.1729556825E-03
 45.32951355   0.1711977093E-03
 45.45630646   0.1681614813E-03
 45.58309937   0.1639203547E-03
 45.70988846   0.1585727587E-03
 45.83668137   0.1522403472E-03
 45.96347427   0.1450653799E-03
 46.09026718   0.1372077095E-03
 46.21706009   0.1288413769E-03
 46.34385300   0.1201507548E-03
 46.47064590   0.1113266117E-03
 46.59743881   0.1025618258E-03
 46.72423172   0.9404735465E-04
 46.85102463   0.8596803673E-04
 46.97781754   0.7849869871E-04
 47.10461044   0.7180048124E-04
 47.23140335   0.6601740461E-04
 47.35819626   0.6127346569E-04
 47.48498917   0.5767003677E-04
 47.61177826   0.5528389738E-04
 47.73857117   0.5416574277E-04
 47.86536407   0.5433937258E-04
 47.99215698   0.5580138168E-04
 48.11894989   0.5852153481E-04
 48.24574280   0.6244370888E-04
 48.37253571   0.6748740270E-04
 48.49932861   0.7354970148E-04
 48.62612152   0.8050772158E-04
 48.75291443   0.8822142263E-04
 48.87970734   0.9653675079E-04
 49.00650024   0.1052890439E-03
 49.13329315   0.1143066620E-03
 49.26008606   0.1234147203E-03
 49.38687897   0.1324388140E-03
 49.51366806   0.1412087004E-03
 49.64046097   0.1495617762E-03
 49.76725388   0.1573463960E-03
 49.89404678   0.1644247095E-03
 50.02083969   0.1706753246E-03
 50.14763260   0.1759954175E-03
 50.27442551   0.1803025516E-03
 50.40121841   0.1835359726E-03
 50.52801132   0.1856575254E-03
 50.65480423   0.1866520906E-03
 50.78159714   0.1865275117E-03
 50.90839005   0.1853139547E-03
 51.03518295   0.1830629189E-03
 51.16197586   0.1798456360E-03
 51.28876877   0.1757512073E-03
 51.41555786   0.1708843920E-03
 51.54235077   0.1653630025E-03
 51.66914368   0.1593152992E-03
 51.79593658   0.1528769644E-03
 51.92272949   0.1461882348E-03
 52.04952240   0.1393907733E-03
 52.17631531   0.1326244965E-03
 52.30310822   0.1260247227E-03
 52.42990112   0.1197190722E-03
 52.55669403   0.1138249354E-03
 52.68348694   0.1084470205E-03
 52.81027985   0.1036753820E-03
 52.93707275   0.9958385635E-04
 53.06386566   0.9622895595E-04
 53.19065857   0.9364917059E-04
 53.31744766   0.9186469833E-04
 53.44424057   0.9087769286E-04
 53.57103348   0.9067276551E-04
 53.69782639   0.9121812764E-04
 53.82461929   0.9246684931E-04
 53.95141220   0.9435868560E-04
 54.07820511   0.9682205564E-04
 54.20499802   0.9977628361E-04
 54.33179092   0.1031340362E-03
 54.45858383   0.1068036581E-03
 54.58537674   0.1106915515E-03
 54.71216965   0.1147043949E-03
 54.83896255   0.1187511298E-03
 54.96575546   0.1227448374E-03
 55.09254837   0.1266042382E-03
 55.21933746   0.1302551682E-03
 55.34613037   0.1336315909E-03
 55.47292328   0.1366764336E-03
 55.59971619   0.1393421699E-03
 55.72650909   0.1415909501E-03
 55.85330200   0.1433946600E-03
 55.98009491   0.1447345421E-03
 56.10688782   0.1456008322E-03
 56.23368073   0.1459920022E-03
 56.36047363   0.1459140331E-03
 56.48726654   0.1453797158E-03
 56.61405945   0.1444077498E-03
 56.74085236   0.1430220727E-03
 56.86764526   0.1412509737E-03
 56.99443817   0.1391264377E-03
 57.12122726   0.1366833458E-03
 57.24802017   0.1339589071E-03
 57.37481308   0.1309918734E-03
 57.50160599   0.1278221462E-03
 57.62839890   0.1244902087E-03
 57.75519180   0.1210368137E-03
 57.88198471   0.1175026409E-03
 58.00877762   0.1139279993E-03
 58.13557053   0.1103525719E-03
 58.26236343   0.1068151323E-03
 58.38915634   0.1033532317E-03
 58.51594925   0.1000027769E-03
 58.64274216   0.9679767390E-04
 58.76953506   0.9376930393E-04
 58.89632797   0.9094601410E-04
 59.02311707   0.8835261542E-04
 59.14990997   0.8600986621E-04
 59.27670288   0.8393390453E-04
 59.40349579   0.8213580440E-04
 59.53028870   0.8062109555E-04
 59.65708160   0.7938940689E-04
 59.78387451   0.7843422645E-04
 59.91066742   0.7774284313E-04
 60.03746033   0.7729649224E-04
 60.16425323   0.7707074110E-04
 60.29104614   0.7703604933E-04
 60.41783905   0.7715866377E-04
 60.54463196   0.7740178989E-04
 60.67142487   0.7772684330E-04
 60.79821777   0.7809494127E-04
 60.92500687   0.7846851804E-04
 61.05179977   0.7881290367E-04
 61.17859268   0.7909791020E-04
 61.30538559   0.7929932326E-04
 61.43217850   0.7940015348E-04
 61.55897141   0.7939171337E-04
 61.68576431   0.7927433762E-04
 61.81255722   0.7905768871E-04
 61.93935013   0.7876076415E-04
 62.06614304   0.7841131446E-04
 62.19293594   0.7804503548E-04
 62.31972885   0.7770408411E-04
 62.44652176   0.7743538299E-04
 62.57331467   0.7728856144E-04
 62.70010757   0.7731369260E-04
 62.82689667   0.7755884144E-04
 62.95368958   0.7806772192E-04
 63.08048248   0.7887743413E-04
 63.20727539   0.8001639071E-04
 63.33406830   0.8150263602E-04
 63.46086121   0.8334256563E-04
 63.58765411   0.8553006046E-04
 63.71444702   0.8804629761E-04
 63.84123993   0.9085996862E-04
 63.96803284   0.9392808715E-04
 64.09482574   0.9719742957E-04
 64.22161865   0.1006063540E-03
 64.34841156   0.1040870920E-03
 64.47520447   0.1075684850E-03
 64.60199738   0.1109787117E-03
 64.72879028   0.1142482724E-03
 64.85558319   0.1173127093E-03
 64.98237610   0.1201151608E-03
 65.10916901   0.1226086315E-03
 65.23596191   0.1247577020E-03
 65.36275482   0.1265398605E-03
 65.48954773   0.1279461721E-03
 65.61633301   0.1289814682E-03
 65.74312592   0.1296638075E-03
 65.86991882   0.1300234871E-03
 65.99671173   0.1301015000E-03
 66.12350464   0.1299473806E-03
 66.25029755   0.1296169357E-03
 66.37709045   0.1291693770E-03
 66.50388336   0.1286648039E-03
 66.63067627   0.1281613368E-03
 66.75746918   0.1277127885E-03
 66.88426208   0.1273665257E-03
 67.01105499   0.1271616784E-03
 67.13784790   0.1271280053E-03
 67.26464081   0.1272850204E-03
 67.39143372   0.1276418043E-03
 67.51822662   0.1281971636E-03
 67.64501953   0.1289404026E-03
 67.77181244   0.1298523712E-03
 67.89860535   0.1309069339E-03
 68.02539825   0.1320726296E-03
 68.15219116   0.1333145483E-03
 68.27898407   0.1345961646E-03
 68.40577698   0.1358810987E-03
 68.53256989   0.1371345425E-03
 68.65936279   0.1383245690E-03
 68.78615570   0.1394227875E-03
 68.91294861   0.1404048380E-03
 69.03974152   0.1412505662E-03
 69.16653442   0.1419436594E-03
 69.29332733   0.1424711954E-03
 69.42011261   0.1428229443E-03
 69.54690552   0.1429904369E-03
 69.67369843   0.1429660624E-03
 69.80049133   0.1427421666E-03
 69.92728424   0.1423101639E-03
 70.05407715   0.1416600280E-03
 70.18087006   0.1407797099E-03
 70.30766296   0.1396552398E-03
 70.43445587   0.1382709306E-03
 70.56124878   0.1366100623E-03
 70.68804169   0.1346559293E-03
 70.81483459   0.1323930337E-03
 70.94162750   0.1298085554E-03
 71.06842041   0.1268938504E-03
 71.19521332   0.1236459793E-03
 71.32200623   0.1200691113E-03
 71.44879913   0.1161758119E-03
 71.57559204   0.1119879889E-03
 71.70238495   0.1075375549E-03
 71.82917786   0.1028667102E-03
 71.95597076   0.9802784189E-04
 72.08276367   0.9308286826E-04
 72.20955658   0.8810222789E-04
 72.33634949   0.8316327876E-04
 72.46314240   0.7834831922E-04
 72.58993530   0.7374227425E-04
 72.71672821   0.6943011249E-04
 72.84352112   0.6549413956E-04
 72.97031403   0.6201122596E-04
 73.09710693   0.5905015496E-04
 73.22389221   0.5666911238E-04
 73.35068512   0.5491350748E-04
 73.47747803   0.5381411756E-04
 73.60427094   0.5338579649E-04
 73.73106384   0.5362660158E-04
 73.85785675   0.5451760444E-04
 73.98464966   0.5602321835E-04
 74.11144257   0.5809220238E-04
 74.23823547   0.6065929119E-04
 74.36502838   0.6364739966E-04
 74.49182129   0.6697027857E-04
 74.61861420   0.7053553418E-04
 74.74540710   0.7424783689E-04
 74.87220001   0.7801234460E-04
 74.99899292   0.8173794049E-04
 75.12578583   0.8534032531E-04
 75.25257874   0.8874484774E-04
 75.37937164   0.9188884724E-04
 75.50616455   0.9472346574E-04
 75.63295746   0.9721487731E-04
 75.75975037   0.9934495029E-04
 75.88654327   0.1011110653E-03
 76.01333618   0.1025254824E-03
 76.14012909   0.1036139001E-03
 76.26692200   0.1044135279E-03
 76.39371490   0.1049706188E-03
 76.52050781   0.1053377782E-03
 76.64730072   0.1055709581E-03
 76.77409363   0.1057265254E-03
 76.90088654   0.1058583512E-03
 77.02767181   0.1060151990E-03
 77.15446472   0.1062385127E-03
 77.28125763   0.1065605393E-03
 77.40805054   0.1070031358E-03
 77.53484344   0.1075769542E-03
 77.66163635   0.1082813396E-03
 77.78842926   0.1091047670E-03
 77.91522217   0.1100257796E-03
 78.04201508   0.1110144876E-03
 78.16880798   0.1120345041E-03
 78.29560089   0.1130451055E-03
 78.42239380   0.1140036693E-03
 78.54918671   0.1148680531E-03
 78.67597961   0.1155988575E-03
 78.80277252   0.1161615728E-03
 78.92956543   0.1165283538E-03
 79.05635834   0.1166795191E-03
 79.18315125   0.1166045622E-03
 79.30994415   0.1163027773E-03
 79.43673706   0.1157834631E-03
 79.56352997   0.1150656826E-03
 79.69032288   0.1141775501E-03
 79.81711578   0.1131552635E-03
 79.94390869   0.1120416127E-03
 80.07070160   0.1108843353E-03
 80.19749451   0.1097341810E-03
 80.32428741   0.1086429766E-03
 80.45108032   0.1076615663E-03
 80.57787323   0.1068379934E-03
 80.70465851   0.1062158044E-03
 80.83145142   0.1058325579E-03
 80.95824432   0.1057185436E-03
 81.08503723   0.1058958296E-03
 81.21183014   0.1063775562E-03
 81.33862305   0.1071675724E-03
 81.46541595   0.1082603339E-03
 81.59220886   0.1096411288E-03
 81.71900177   0.1112866739E-03
 81.84579468   0.1131659956E-03
 81.97258759   0.1152415862E-03
 82.09938049   0.1174708086E-03
 82.22617340   0.1198074242E-03
 82.35296631   0.1222031715E-03
 82.47975922   0.1246094325E-03
 82.60655212   0.1269787317E-03
 82.73334503   0.1292662928E-03
 82.86013794   0.1314313267E-03
 82.98693085   0.1334382396E-03
 83.11372375   0.1352575200E-03
 83.24051666   0.1368665107E-03
 83.36730957   0.1382496266E-03
 83.49410248   0.1393985003E-03
 83.62089539   0.1403115893E-03
 83.74768829   0.1409935503E-03
 83.87448120   0.1414542057E-03
 84.00127411   0.1417072926E-03
 84.12806702   0.1417690946E-03
 84.25485992   0.1416568994E-03
 84.38165283   0.1413875143E-03
 84.50843811   0.1409758115E-03
 84.63523102   0.1404334325E-03
 84.76202393   0.1397676970E-03
 84.88881683   0.1389807003E-03
 85.01560974   0.1380687900E-03
 85.14240265   0.1370224345E-03
 85.26919556   0.1358263398E-03
 85.39598846   0.1344601769E-03
 85.52278137   0.1328996004E-03
 85.64957428   0.1311176457E-03
 85.77636719   0.1290865184E-03
 85.90316010   0.1267795305E-03
 86.02995300   0.1241731661E-03
 86.15674591   0.1212491334E-03
 86.28353882   0.1179963438E-03
 86.41033173   0.1144125272E-03
 86.53712463   0.1105056435E-03
 86.66391754   0.1062948868E-03
 86.79071045   0.1018112744E-03
 86.91750336   0.9709767619E-04
 87.04429626   0.9220831271E-04
 87.17108917   0.8720780897E-04
 87.29788208   0.8216968126E-04
 87.42467499   0.7717429980E-04
 87.55146790   0.7230647316E-04
 87.67826080   0.6765276339E-04
 87.80505371   0.6329856114E-04
 87.93184662   0.5932520435E-04
 88.05863953   0.5580716243E-04
 88.18543243   0.5280960249E-04
 88.31221771   0.5038617019E-04
 88.43901062   0.4857731983E-04
 88.56580353   0.4740910663E-04
 88.69259644   0.4689251364E-04
 88.81938934   0.4702337174E-04
 88.94618225   0.4778284347E-04
 89.07297516   0.4913847079E-04
 89.19976807   0.5104566662E-04
 89.32656097   0.5344969395E-04
 89.45335388   0.5628790677E-04
 89.58014679   0.5949226397E-04
 89.70693970   0.6299182132E-04
 89.83373260   0.6671513984E-04
 89.96052551   0.7059251220E-04
 90.08731842   0.7455780724E-04
 90.21411133   0.7854995783E-04
 90.34090424   0.8251411055E-04
 90.46769714   0.8640228771E-04
 90.59449005   0.9017367120E-04
 90.72128296   0.9379453695E-04
 90.84807587   0.9723784024E-04
 90.97486877   0.1004825681E-03
 91.10166168   0.1035127934E-03
 91.22845459   0.1063168020E-03
 91.35524750   0.1088859863E-03
 91.48204041   0.1112140599E-03
 91.60883331   0.1132961916E-03
 91.73562622   0.1151287070E-03
 91.86241913   0.1167088994E-03
 91.98921204   0.1180352265E-03
 92.11599731   0.1191077317E-03
 92.24279022   0.1199287435E-03
 92.36958313   0.1205036024E-03
 92.49637604   0.1208414833E-03
 92.62316895   0.1209561524E-03
 92.74996185   0.1208666436E-03
 92.87675476   0.1205977023E-03
 93.00354767   0.1201800769E-03
 93.13034058   0.1196502781E-03
 93.25713348   0.1190501353E-03
 93.38392639   0.1184258581E-03
 93.51071930   0.1178267048E-03
 93.63751221   0.1173032288E-03
 93.76430511   0.1169052703E-03
 93.89109802   0.1166796064E-03
 94.01789093   0.1166676884E-03
 94.14468384   0.1169032694E-03
 94.27147675   0.1174103236E-03
 94.39826965   0.1182012347E-03
 94.52506256   0.1192754862E-03
 94.65185547   0.1206186862E-03
 94.77864838   0.1222023711E-03
 94.90544128   0.1239843114E-03
 95.03223419   0.1259094861E-03
 95.15902710   0.1279118151E-03
 95.28582001   0.1299162686E-03
 95.41261292   0.1318417635E-03
 95.53940582   0.1336043060E-03
 95.66619873   0.1351204992E-03
 95.79299164   0.1363111660E-03
 95.91977692   0.1371049584E-03
 96.04656982   0.1374416170E-03
 96.17336273   0.1372749684E-03
 96.30015564   0.1365752687E-03
 96.42694855   0.1353309926E-03
 96.55374146   0.1335498673E-03
 96.68053436   0.1312591630E-03
 96.80732727   0.1285050821E-03
 96.93412018   0.1253514201E-03
 97.06091309   0.1218774269E-03
 97.18770599   0.1181749321E-03
 97.31449890   0.1143449845E-03
 97.44129181   0.1104940238E-03
 97.56808472   0.1067297344E-03
 97.69487762   0.1031569627E-03
 97.82167053   0.9987359226E-04
 97.94846344   0.9696691268E-04
 98.07525635   0.9451028745E-04
 98.20204926   0.9256062185E-04
 98.32884216   0.9115641296E-04
 98.45563507   0.9031663649E-04
 98.58242798   0.9004049207E-04
 98.70922089   0.9030794899E-04
 98.83601379   0.9108109225E-04
 98.96280670   0.9230621072E-04
 99.08959961   0.9391648928E-04
 99.21639252   0.9583517385E-04
 99.34318542   0.9797905659E-04
 99.46997833   0.1002620993E-03
 99.59677124   0.1025990568E-03
 99.72355652   0.1049088023E-03
 99.85034943   0.1071173974E-03
 99.97714233   0.1091605518E-03
 100.1039352   0.1109855802E-03
 100.2307281   0.1125526396E-03
 100.3575211   0.1138353400E-03
 100.4843140   0.1148206939E-03
 100.6111069   0.1155083737E-03
 100.7378998   0.1159095555E-03
 100.8646927   0.1160450629E-03
 100.9914856   0.1159434469E-03
 101.1182785   0.1156386134E-03
 101.2450714   0.1151675897E-03
 101.3718643   0.1145681890E-03
 101.4986572   0.1138769076E-03
 101.6254501   0.1131271129E-03
 101.7522430   0.1123475449E-03
 101.8790359   0.1115613704E-03
 102.0058289   0.1107855642E-03
 102.1326218   0.1100308073E-03
 102.2594147   0.1093018291E-03
 102.3862076   0.1085980330E-03
 102.5130005   0.1079145368E-03
 102.6397934   0.1072432715E-03
 102.7665863   0.1065743199E-03
 102.8933792   0.1058972339E-03
 103.0201721   0.1052023072E-03
 103.1469650   0.1044816017E-03
 103.2737579   0.1037298862E-03
 103.4005508   0.1029452833E-03
 103.5273361   0.1021296193E-03
 103.6541290   0.1012884604E-03
 103.7809219   0.1004308069E-03
 103.9077148   0.9956852591E-04
 104.0345078   0.9871559450E-04
 104.1613007   0.9788703755E-04
 104.2880936   0.9709794540E-04
 104.4148865   0.9636236064E-04
 104.5416794   0.9569221584E-04
 104.6684723   0.9509649681E-04
 104.7952652   0.9458052955E-04
 104.9220581   0.9414544911E-04
 105.0488510   0.9378798859E-04
 105.1756439   0.9350052278E-04
 105.3024368   0.9327130829E-04
 105.4292297   0.9308504377E-04
 105.5560226   0.9292367758E-04
 105.6828156   0.9276745550E-04
 105.8096085   0.9259601939E-04
 105.9364014   0.9238981147E-04
 106.0631943   0.9213137673E-04
 106.1899872   0.9180667257E-04
 106.3167801   0.9140630573E-04
 106.4435730   0.9092651453E-04
 106.5703659   0.9037000564E-04
 106.6971588   0.8974644879E-04
 106.8239517   0.8907276788E-04
 106.9507446   0.8837313362E-04
 107.0775375   0.8767862892E-04
 107.2043304   0.8702669584E-04
 107.3311157   0.8646016795E-04
 107.4579086   0.8602613525E-04
 107.5847015   0.8577448898E-04
 107.7114944   0.8575619722E-04
 107.8382874   0.8602151502E-04
 107.9650803   0.8661805623E-04
 108.0918732   0.8758887270E-04
 108.2186661   0.8897069347E-04
 108.3454590   0.9079209849E-04
 108.4722519   0.9307204891E-04
 108.5990448   0.9581850463E-04
 108.7258377   0.9902741294E-04
 108.8526306   0.1026817990E-03
 108.9794235   0.1067513513E-03
 109.1062164   0.1111922174E-03
 109.2330093   0.1159473104E-03
 109.3598022   0.1209470065E-03
 109.4865952   0.1261103171E-03
 109.6133881   0.1313464018E-03
 109.7401810   0.1365565986E-03
 109.8669739   0.1416365703E-03
 109.9937668   0.1464789530E-03
 110.1205597   0.1509759022E-03
 110.2473526   0.1550220913E-03
 110.3741455   0.1585174905E-03
 110.5009384   0.1613703644E-03
 110.6277313   0.1635000372E-03
 110.7545242   0.1648395410E-03
 110.8813171   0.1653380314E-03
 111.0081024   0.1649627229E-03
 111.1348953   0.1637003879E-03
 111.2616882   0.1615583897E-03
 111.3884811   0.1585648715E-03
 111.5152740   0.1547686988E-03
 111.6420670   0.1502383529E-03
 111.7688599   0.1450606214E-03
 111.8956528   0.1393385755E-03
 112.0224457   0.1331890235E-03
 112.1492386   0.1267397165E-03
 112.2760315   0.1201259438E-03
 112.4028244   0.1134870909E-03
 112.5296173   0.1069628706E-03
 112.6564102   0.1006897219E-03
 112.7832031   0.9479703294E-04
 112.9099960   0.8940383123E-04
 113.0367889   0.8461569814E-04
 113.1635818   0.8052219346E-04
 113.2903748   0.7719481073E-04
 113.4171677   0.7468550757E-04
 113.5439606   0.7302578888E-04
 113.6707535   0.7222648128E-04