 -4.500000000   0.1085839328E-16
 -4.373207569   0.1085839246E-16
 -4.246414661   0.1085839163E-16
 -4.119622231   0.1085839080E-16
 -3.992829323   0.1085838915E-16
 -3.866036654   0.1085838832E-16
 -3.739243984   0.1085838749E-16
 -3.612451553   0.1085838832E-16
 -3.485658884   0.1085838915E-16
 -3.358866215   0.1085839163E-16
 -3.232073545   0.1085839328E-16
 -3.105280876   0.1085839494E-16
 -2.978488207   0.1085839577E-16
 -2.851695538   0.1085839659E-16
 -2.724902868   0.1085839742E-16
 -2.598110199   0.1085839907E-16
 -2.471317530   0.1085840238E-16
 -2.344524860   0.1085840569E-16
 -2.217732191   0.1085840735E-16
 -2.090939522   0.1085840900E-16
 -1.964146972   0.1085840983E-16
 -1.837354302   0.1085840983E-16
 -1.710561633   0.1085840983E-16
 -1.583768964   0.1085840983E-16
 -1.456976295   0.1085841231E-16
 -1.330183744   0.1085841727E-16
 -1.203391075   0.1085842389E-16
 -1.076598406   0.1085843216E-16
 -0.9498057365   0.1085844043E-16
 -0.8230130672   0.1085844953E-16
 -0.6962204576   0.1085845780E-16
 -0.5694277883   0.1085846525E-16
 -0.4426351190   0.1085847352E-16
 -0.3158424795   0.1085848096E-16
 -0.1890498251   0.1085848841E-16
 -0.6225717068E-01   0.1085849585E-16
 0.6453548372E-01   0.1085850247E-16
 0.1913281381   0.1085850743E-16
 0.3181207776   0.1085851074E-16
 0.4449134469   0.1085851322E-16
 0.5717061162   0.1085851488E-16
 0.6984987259   0.1085851819E-16
 0.8252913952   0.1085852315E-16
 0.9520840645   0.1085853060E-16
 1.078876734   0.1085853969E-16
 1.205669403   0.1085855045E-16
 1.332461953   0.1085856203E-16
 1.459254622   0.1085857195E-16
 1.586047292   0.1085858023E-16
 1.712839961   0.1085858767E-16
 1.839632630   0.1085859429E-16
 1.966425300   0.1085860091E-16
 2.093217850   0.1085860587E-16
 2.220010519   0.1085860918E-16
 2.346803188   0.1085861331E-16
 2.473595858   0.1085861828E-16
 2.600388527   0.1085862324E-16
 2.727181196   0.1085862903E-16
 2.853973866   0.1085863647E-16
 2.980766535   0.1085864640E-16
 3.107559204   0.1085865881E-16
 3.234351873   0.1085867535E-16
 3.361144543   0.1085869438E-16
 3.487936974   0.1085871588E-16
 3.614729643   0.1085873822E-16
 3.741522312   0.1085876055E-16
 3.868314981   0.1085878123E-16
 3.995107651   0.1085879943E-16
 4.121900558   0.1085881515E-16
 4.248692989   0.1085882921E-16
 4.375485420   0.1085884244E-16
 4.502278328   0.1085885568E-16
 4.629070759   0.1085886891E-16
 4.755863667   0.1085888215E-16
 4.882656097   0.1085889621E-16
 5.009449005   0.1085891027E-16
 5.136241436   0.1085892351E-16
 5.263034344   0.1085893757E-16
 5.389826775   0.1085895163E-16
 5.516619682   0.1085896652E-16
 5.643412113   0.1085898058E-16
 5.770205021   0.1085899547E-16
 5.896997452   0.1085900788E-16
 6.023790359   0.1085901698E-16
 6.150582790   0.1085902277E-16
 6.277375221   0.1085902525E-16
 6.404168129   0.1085902277E-16
 6.530960560   0.1085901863E-16
 6.657753468   0.1085901036E-16
 6.784545898   0.1085900209E-16
 6.911338806   0.1085899464E-16
 7.038131237   0.1085898885E-16
 7.164924145   0.1085898389E-16
 7.291716576   0.1085898141E-16
 7.418509483   0.1085898058E-16
 7.545301914   0.1085898224E-16
 7.672094822   0.1085898554E-16
 7.798887253   0.1085898968E-16
 7.925679684   0.1085899464E-16
 8.052472115   0.1085900043E-16
 8.179265022   0.1085900457E-16
 8.306057930   0.1085900953E-16
 8.432850838   0.1085901367E-16
 8.559642792   0.1085901780E-16
 8.686435699   0.1085902360E-16
 8.813228607   0.1085902939E-16
 8.940021515   0.1085903766E-16
 9.066813469   0.1085904676E-16
 9.193606377   0.1085905834E-16
 9.320399284   0.1085907157E-16
 9.447192192   0.1085908729E-16
 9.573984146   0.1085910549E-16
 9.700777054   0.1085912699E-16
 9.827569962   0.1085915098E-16
 9.954361916   0.1085917497E-16
 10.08115482   0.1085919896E-16
 10.20794773   0.1085922129E-16
 10.33474064   0.1085924280E-16
 10.46153259   0.1085926265E-16
 10.58832550   0.1085928085E-16
 10.71511841   0.1085929905E-16
 10.84191132   0.1085931807E-16
 10.96870327   0.1085933875E-16
 11.09549618   0.1085936026E-16
 11.22228909   0.1085938176E-16
 11.34908199   0.1085940244E-16
 11.47587395   0.1085942147E-16
 11.60266685   0.1085943967E-16
 11.72945976   0.1085945621E-16
 11.85625172   0.1085947193E-16
 11.98304462   0.1085948847E-16
 12.10983753   0.1085950667E-16
 12.23663044   0.1085952487E-16
 12.36342239   0.1085954224E-16
 12.49021530   0.1085955713E-16
 12.61700821   0.1085957036E-16
 12.74380112   0.1085958194E-16
 12.87059307   0.1085959187E-16
 12.99738598   0.1085960097E-16
 13.12417889   0.1085961172E-16
 13.25097084   0.1085962413E-16
 13.37776375   0.1085963902E-16
 13.50455666   0.1085965639E-16
 13.63134956   0.1085967376E-16
 13.75814152   0.1085969278E-16
 13.88493443   0.1085971264E-16
 14.01172733   0.1085973332E-16
 14.13852024   0.1085975482E-16
 14.26531219   0.1085977798E-16
 14.39210510   0.1085980197E-16
 14.51889801   0.1085982844E-16
 14.64569092   0.1085985491E-16
 14.77248287   0.1085987890E-16
 14.89927578   0.1085990206E-16
 15.02606869   0.1085992191E-16
 15.15286064   0.1085993928E-16
 15.27965355   0.1085995583E-16
 15.40644646   0.1085997154E-16
 15.53323936   0.1085998643E-16
 15.66003132   0.1086000215E-16
 15.78682423   0.1086001869E-16
 15.91361713   0.1086003441E-16
 16.04040909   0.1086004930E-16
 16.16720200   0.1086006336E-16
 16.29399490   0.1086007577E-16
 16.42078781   0.1086008900E-16
 16.54758072   0.1086010307E-16
 16.67437363   0.1086011878E-16
 16.80116463   0.1086013698E-16
 16.92795753   0.1086015601E-16
 17.05475044   0.1086017586E-16
 17.18154335   0.1086019488E-16
 17.30833626   0.1086021060E-16
 17.43512917   0.1086022383E-16
 17.56192207   0.1086023459E-16
 17.68871498   0.1086024451E-16
 17.81550598   0.1086025361E-16
 17.94229889   0.1086026354E-16
 18.06909180   0.1086027512E-16
 18.19588470   0.1086028918E-16
 18.32267761   0.1086030407E-16
 18.44947052   0.1086031896E-16
 18.57626343   0.1086033550E-16
 18.70305443   0.1086035370E-16
 18.82984734   0.1086037438E-16
 18.95664024   0.1086040002E-16
 19.08343315   0.1086042815E-16
 19.21022606   0.1086045793E-16
 19.33701897   0.1086048770E-16
 19.46381187   0.1086051500E-16
 19.59060478   0.1086053982E-16
 19.71739578   0.1086056050E-16
 19.84418869   0.1086057952E-16
 19.97098160   0.1086059772E-16
 20.09777451   0.1086061757E-16
 20.22456741   0.1086064073E-16
 20.35136032   0.1086066555E-16
 20.47815323   0.1086069285E-16
 20.60494423   0.1086072014E-16
 20.73173714   0.1086074661E-16
 20.85853004   0.1086077225E-16
 20.98532295   0.1086079955E-16
 21.11211586   0.1086082933E-16
 21.23890877   0.1086086242E-16
 21.36570168   0.1086089964E-16
 21.49249458   0.1086094017E-16
 21.61928558   0.1086098070E-16
 21.74607849   0.1086101875E-16
 21.87287140   0.1086105350E-16
 21.99966431   0.1086108327E-16
 22.12645721   0.1086111057E-16
 22.25325012   0.1086113787E-16
 22.38004303   0.1086116599E-16
 22.50683403   0.1086119494E-16
 22.63362694   0.1086122555E-16
 22.76041985   0.1086125616E-16
 22.88721275   0.1086128676E-16
 23.01400566   0.1086131571E-16
 23.14079857   0.1086134301E-16
 23.26759148   0.1086136948E-16
 23.39438438   0.1086139843E-16
 23.52117538   0.1086142904E-16
 23.64796829   0.1086146295E-16
 23.77476120   0.1086150100E-16
 23.90155411   0.1086153905E-16
 24.02834702   0.1086157627E-16
 24.15513992   0.1086160853E-16
 24.28193283   0.1086163831E-16
 24.40872383   0.1086166561E-16
 24.53551674   0.1086169208E-16
 24.66230965   0.1086172103E-16
 24.78910255   0.1086175246E-16
 24.91589546   0.1086178803E-16
 25.04268837   0.1086182691E-16
 25.16948128   0.1086186744E-16
 25.29627419   0.1086190963E-16
 25.42306519   0.1086195181E-16
 25.54985809   0.1086199648E-16
 25.67665100   0.1086204363E-16
 25.80344391   0.1086209326E-16
 25.93023682   0.1086214620E-16
 26.05702972   0.1086220162E-16
 26.18382263   0.1086225787E-16
 26.31061363   0.1086231164E-16
 26.43740654   0.1086236044E-16
 26.56419945   0.1086240428E-16
 26.69099236   0.1086244316E-16
 26.81778526   0.1086247956E-16
 26.94457817   0.1086251595E-16
 27.07137108   0.1086255317E-16
 27.19816399   0.1086259371E-16
 27.32495499   0.1086263589E-16
 27.45174789   0.1086267973E-16
 27.57854080   0.1086272275E-16
 27.70533371   0.1086276576E-16
 27.83212662   0.1086280795E-16
 27.95891953   0.1086285013E-16
 28.08571243   0.1086289232E-16
 28.21250343   0.1086293451E-16
 28.33929634   0.1086297504E-16
 28.46608925   0.1086301143E-16
 28.59288216   0.1086304369E-16
 28.71967506   0.1086307099E-16
 28.84646797   0.1086309498E-16
 28.97326088   0.1086311731E-16
 29.10005379   0.1086313965E-16
 29.22684479   0.1086316529E-16
 29.35363770   0.1086319341E-16
 29.48043060   0.1086322567E-16
 29.60722351   0.1086326124E-16
 29.73401642   0.1086330012E-16
 29.86080933   0.1086334313E-16
 29.98760223   0.1086338863E-16
 30.11439323   0.1086343826E-16
 30.24118614   0.1086349037E-16
 30.36797905   0.1086354496E-16
 30.49477196   0.1086360204E-16
 30.62156487   0.1086365912E-16
 30.74835777   0.1086371371E-16
 30.87515068   0.1086376417E-16
 31.00194168   0.1086381132E-16
 31.12873459   0.1086385433E-16
 31.25552750   0.1086389321E-16
 31.38232040   0.1086393126E-16
 31.50911331   0.1086396765E-16
 31.63590622   0.1086400322E-16
 31.76269913   0.1086403962E-16
 31.88949203   0.1086407601E-16
 32.01628494   0.1086411158E-16
 32.14307785   0.1086414467E-16
 32.26987076   0.1086417528E-16
 32.39666367   0.1086420340E-16
 32.52345276   0.1086423070E-16
 32.65024567   0.1086425551E-16
 32.77703857   0.1086427702E-16
 32.90383148   0.1086429604E-16
 33.03062439   0.1086430928E-16
 33.15741730   0.1086431672E-16
 33.28421021   0.1086431672E-16
 33.41100311   0.1086431011E-16
 33.53779602   0.1086429853E-16
 33.66458893   0.1086428529E-16
 33.79138184   0.1086427123E-16
 33.91817474   0.1086425799E-16
 34.04496765   0.1086424641E-16
 34.17176056   0.1086423566E-16
 34.29855347   0.1086422491E-16
 34.42534256   0.1086421498E-16
 34.55213547   0.1086420505E-16
 34.67892838   0.1086419513E-16
 34.80572128   0.1086418686E-16
 34.93251419   0.1086418107E-16
 35.05930710   0.1086417941E-16
 35.18610001   0.1086418107E-16
 35.31289291   0.1086418686E-16
 35.43968582   0.1086419678E-16
 35.56647873   0.1086421250E-16
 35.69327164   0.1086423483E-16
 35.82006454   0.1086426378E-16
 35.94685745   0.1086430183E-16
 36.07365036   0.1086434816E-16
 36.20044327   0.1086440275E-16
 36.32723236   0.1086446479E-16
 36.45402527   0.1086453345E-16
 36.58081818   0.1086460458E-16
 36.70761108   0.1086467324E-16
 36.83440399   0.1086473859E-16
 36.96119690   0.1086479483E-16
 37.08798981   0.1086484198E-16
 37.21478271   0.1086487755E-16
 37.34157562   0.1086490154E-16
 37.46836853   0.1086491312E-16
 37.59516144   0.1086491229E-16
 37.72195435   0.1086489989E-16
 37.84874725   0.1086487755E-16
 37.97554016   0.1086484695E-16
 38.10232925   0.1086481138E-16
 38.22912216   0.1086477167E-16
 38.35591507   0.1086473197E-16
 38.48270798   0.1086469475E-16
 38.60950089   0.1086466000E-16
 38.73629379   0.1086462692E-16
 38.86308670   0.1086459631E-16
 38.98987961   0.1086456240E-16
 39.11667252   0.1086452435E-16
 39.24346542   0.1086447554E-16
 39.37025833   0.1086441268E-16
 39.49705124   0.1086432830E-16
 39.62384415   0.1086421498E-16
 39.75063705   0.1086406526E-16
 39.87742996   0.1086386839E-16
 40.00421906   0.1086361279E-16
 40.13101196   0.1086328854E-16
 40.25780487   0.1086288322E-16
 40.38459778   0.1086238857E-16
 40.51139069   0.1086179796E-16
 40.63818359   0.1086110809E-16
 40.76497650   0.1086031813E-16
 40.89176941   0.1085943388E-16
 41.01856232   0.1085846773E-16
 41.14535522   0.1085743789E-16
 41.27214813   0.1085637165E-16
 41.39894104   0.1085530211E-16
 41.52573395   0.1085426731E-16
 41.65252686   0.1085331274E-16
 41.77931976   0.1085248556E-16
 41.90610886   0.1085183953E-16
 42.03290176   0.1085142181E-16
 42.15969467   0.1085127870E-16
 42.28648758   0.1085144828E-16
 42.41328049   0.1085195699E-16
 42.54007339   0.1085281478E-16
 42.66686630   0.1085401088E-16
 42.79365921   0.1085550973E-16
 42.92045212   0.1085725095E-16
 43.04724503   0.1085914685E-16
 43.17403793   0.1086108327E-16
 43.30083084   0.1086291962E-16
 43.42762375   0.1086449126E-16
 43.55441666   0.1086562119E-16
 43.68120956   0.1086611915E-16
 43.80799866   0.1086579655E-16
 43.93479156   0.1086447389E-16
 44.06158447   0.1086199731E-16
 44.18837738   0.1085825018E-16
 44.31517029   0.1085316550E-16
 44.44196320   0.1084674658E-16
 44.56875610   0.1083907283E-16
 44.69554901   0.1083031629E-16
 44.82234192   0.1082074250E-16
 44.94913483   0.1081071790E-16
 45.07592773   0.1080070405E-16
 45.20272064   0.1079124690E-16
 45.32951355   0.1078296682E-16
 45.45630646   0.1077653053E-16
 45.58309937   0.1077262954E-16
 45.70988846   0.1077193554E-16
 45.83668137   0.1077507055E-16
 45.96347427   0.1078254992E-16
 46.09026718   0.1079474091E-16
 46.21706009   0.1081181226E-16
 46.34385300   0.1083368788E-16
 46.47064590   0.1086000629E-16
 46.59743881   0.1089009167E-16
 46.72423172   0.1092293736E-16
 46.85102463   0.1095720001E-16
 46.97781754   0.1099122029E-16
 47.10461044   0.1102305268E-16
 47.23140335   0.1105052749E-16
 47.35819626   0.1107133025E-16
 47.48498917   0.1108309855E-16
 47.61177826   0.1108355102E-16
 47.73857117   0.1107061722E-16
 47.86536407   0.1104259483E-16
 47.99215698   0.1099830179E-16
 48.11894989   0.1093722939E-16
 48.24574280   0.1085968782E-16
 48.37253571   0.1076692117E-16
 48.49932861   0.1066119922E-16
 48.62612152   0.1054586708E-16
 48.75291443   0.1042534107E-16
 48.87970734   0.1030505660E-16
 49.00650024   0.1019134326E-16
 49.13329315   0.1009124365E-16
 49.26008606   0.1001225204E-16
 49.38687897   0.9961996679E-17
 49.51366806   0.9947862644E-17
 49.64046097   0.9976564157E-17
 49.76725388   0.1005368882E-16
 49.89404678   0.1018322034E-16
 50.02083969   0.1036708440E-16
 50.14763260   0.1060472098E-16
 50.27442551   0.1089272211E-16
 50.40121841   0.1122456381E-16
 50.52801132   0.1159045392E-16
 50.65480423   0.1197732298E-16
 50.78159714   0.1236898556E-16
 50.90839005   0.1274647770E-16
 51.03518295   0.1308858885E-16
 51.16197586   0.1337259635E-16
 51.28876877   0.1357517040E-16
 51.41555786   0.1367346344E-16
 51.54235077   0.1364631703E-16
 51.66914368   0.1347557868E-16
 51.79593658   0.1314744688E-16
 51.92272949   0.1265380038E-16
 52.04952240   0.1199344308E-16
 52.17631531   0.1117317273E-16
 52.30310822   0.1020862141E-16
 52.42990112   0.9124778230E-17
 52.55669403   0.7956123398E-17
 52.68348694   0.6746317158E-17
 52.81027985   0.5547404474E-17
 52.93707275   0.4418488226E-17
 53.06386566   0.3423881708E-17
 53.19065857   0.2630748056E-17
 53.31744766   0.2106275430E-17
 53.44424057   0.1914464446E-17
 53.57103348   0.2112622180E-17
 53.69782639   0.2747707052E-17
 53.82461929   0.3852661945E-17
 53.95141220   0.5442921222E-17
 54.07820511   0.7513279022E-17
 54.20499802   0.1003531218E-16
 54.33179092   0.1295555504E-16
 54.45858383   0.1619460324E-16
 54.58537674   0.1964732295E-16
 54.71216965   0.2318428769E-16
 54.83896255   0.2665454528E-16
 54.96575546   0.2988972476E-16
 55.09254837   0.3270953053E-16
 55.21933746   0.3492843590E-16
 55.34613037   0.3636354794E-16
 55.47292328   0.3684330277E-16
 55.59971619   0.3621678294E-16
 55.72650909   0.3436327964E-16
 55.85330200   0.3120165306E-16
 55.98009491   0.2669912204E-16
 56.10688782   0.2087892540E-16
 56.23368073   0.1382642982E-16
 56.36047363   0.5693179754E-17
 56.48726654   -0.3301525772E-17
 56.61405945   -0.1287189896E-16
 56.74085236   -0.2267006259E-16
 56.86764526   -0.3229376308E-16
 56.99443817   -0.4129743876E-16
 57.12122726   -0.4920657913E-16
 57.24802017   -0.5553506668E-16
 57.37481308   -0.5980516491E-16
 57.50160599   -0.6156949483E-16
 57.62839890   -0.6043435818E-16
 57.75519180   -0.5608346757E-16
 57.88198471   -0.4830104466E-16
 58.00877762   -0.3699338973E-16
 58.13557053   -0.2220759418E-16
 58.26236343   -0.4146367725E-17
 58.38915634   0.1682213224E-16
 58.51594925   0.4016049886E-16
 58.64274216   0.6516509013E-16
 58.76953506   0.9097657293E-16
 58.89632797   0.1165983336E-15
 59.02311707   0.1409229228E-15
 59.14990997   0.1627661953E-15
 59.27670288   0.1809087278E-15
 59.40349579   0.1941433529E-15
 59.53028870   0.2013276216E-15
 59.65708160   0.2014395623E-15
 59.78387451   0.1936344184E-15
 59.91066742   0.1773005395E-15
 60.03746033   0.1521116854E-15
 60.16425323   0.1180731900E-15
 60.29104614   0.7555931598E-16
 60.41783905   0.2533958122E-16
 60.54463196   -0.3140875593E-16
 60.67142487   -0.9310363148E-16
 60.79821777   -0.1577783359E-15
 60.92500687   -0.2231198074E-15
 61.05179977   -0.2865254910E-15
 61.17859268   -0.3451784462E-15
 61.30538559   -0.3961393894E-15
 61.43217850   -0.4364540019E-15
 61.55897141   -0.4632726003E-15
 61.68576431   -0.4739781968E-15
 61.81255722   -0.4663192190E-15
 61.93935013   -0.4385416470E-15
 62.06614304   -0.3895148506E-15
 62.19293594   -0.3188457271E-15
 62.31972885   -0.2269749720E-15
 62.44652176   -0.1152498968E-15
 62.57331467   0.1403230515E-16
 62.70010757   0.1576144615E-15
 62.82689667   0.3113080339E-15
 62.95368958   0.4700619929E-15
 63.08048248   0.6280739245E-15
 63.20727539   0.7789440450E-15
 63.33406830   0.9158685620E-15
 63.46086121   0.1031870571E-14
 63.58765411   0.1120062583E-14
 63.71444702   0.1173931972E-14
 63.84123993   0.1187642577E-14
 63.96803284   0.1156339628E-14
 64.09482574   0.1076448856E-14
 64.22161865   0.9459535841E-15
 64.34841156   0.7646394055E-15
 64.47520447   0.5342914954E-15
 64.60199738   0.2588325164E-15
 64.72879028   -0.5561072392E-16
 64.85558319   -0.4007224729E-15
 64.98237610   -0.7661023902E-15
 65.10916901   -0.1139463978E-14
 65.23596191   -0.1506929000E-14
 65.36275482   -0.1853415874E-14
 65.48954773   -0.2163116318E-14
 65.61633301   -0.2420049363E-14
 65.74312592   -0.2608680212E-14
 65.86991882   -0.2714582624E-14
 65.99671173   -0.2725126067E-14
 66.12350464   -0.2630159697E-14
 66.25029755   -0.2422667754E-14
 66.37709045   -0.2099364807E-14
 66.50388336   -0.1661202710E-14
 66.63067627   -0.1113759705E-14
 66.75746918   -0.4674822481E-15
 66.88426208   0.2622417446E-15
 67.01105499   0.1055200929E-14
 67.13784790   0.1886681822E-14
 67.26464081   0.2728003438E-14
 67.39143372   0.3547261963E-14
 67.51822662   0.4310280465E-14
 67.64501953   0.4981737882E-14
 67.77181244   0.5526460959E-14
 67.89860535   0.5910832228E-14
 68.02539825   0.6104276342E-14
 68.15219116   0.6080768637E-14
 68.27898407   0.5820303464E-14
 68.40577698   0.5310274434E-14
 68.53256989   0.4546679314E-14
 68.65936279   0.3535107464E-14
 68.78615570   0.2291430163E-14
 68.91294861   0.8421507552E-15
 69.03974152   -0.7756409341E-15
 69.16653442   -0.2514740871E-14
 69.29332733   -0.4318753336E-14
 69.42011261   -0.6123467144E-14
 69.54690552   -0.7858676817E-14
 69.67369843   -0.9450410967E-14
 69.80049133   -0.1082352168E-13
 69.92728424   -0.1190455425E-13
 70.05407715   -0.1262482618E-13
 70.18087006   -0.1292358232E-13
 70.30766296   -0.1275113319E-13
 70.43445587   -0.1207182886E-13
 70.56124878   -0.1086674323E-13
 70.68804169   -0.9135926268E-14
 70.81483459   -0.6900093442E-14
 70.94162750   -0.4201650607E-14
 71.06842041   -0.1104920598E-14
 71.19521332   0.2304477012E-14
 71.32200623   0.5921161795E-14
 71.44879913   0.9622456911E-14
 71.57559204   0.1327176369E-13
 71.70238495   0.1672278513E-13
 71.82917786   0.1982451306E-13
 71.95597076   0.2242682866E-13
 72.08276367   0.2438654273E-13
 72.20955658   0.2557367465E-13
 72.33634949   0.2587774931E-13
 72.46314240   0.2521380423E-13
 72.58993530   0.2352790882E-13
 72.71672821   0.2080187219E-13
 72.84352112   0.1705690405E-13
 72.97031403   0.1235600418E-13
 73.09710693   0.6804851787E-14
 73.22389221   0.5510474482E-15
 73.35068512   -0.6218387350E-14
 73.47747803   -0.1328130805E-13
 73.60427094   -0.2038650587E-13
 73.73106384   -0.2726140982E-13
 73.85785675   -0.3362128555E-13
 73.98464966   -0.3917961062E-13
 74.11144257   -0.4365937814E-13
 74.23823547   -0.4680484516E-13
 74.36502838   -0.4839337413E-13
 74.49182129   -0.4824682388E-13
 74.61861420   -0.4624200193E-13
 74.74540710   -0.4231971083E-13
 74.87220001   -0.3649185649E-13
 74.99899292   -0.2884623896E-13
 75.12578583   -0.1954862426E-13
 75.25257874   -0.8841805936E-14
 75.37937164   0.2958517102E-14
 75.50616455   0.1547112624E-13
 75.63295746   0.2825982788E-13
 75.75975037   0.4084702886E-13
 75.88654327   0.5272989483E-13
 76.01333618   0.6339876269E-13
 76.14012909   0.7235703058E-13
 76.26692200   0.7914197455E-13
 76.39371490   0.8334559578E-13
 76.52050781   0.8463468506E-13
 76.64730072   0.8276923390E-13
 76.77409363   0.7761822326E-13
 76.90088654   0.6917213926E-13
 77.02767181   0.5755132156E-13
 77.15446472   0.4300955479E-13
 77.28125763   0.2593250322E-13
 77.40805054   0.6830601589E-14
 77.53484344   -0.1367360205E-13
 77.66163635   -0.3486348309E-13
 77.78842926   -0.5595142540E-13
 77.91522217   -0.7610624912E-13
 78.04201508   -0.9448410614E-13
 78.16880798   -0.1102619854E-12
 78.29560089   -0.1226722716E-12
 78.42239380   -0.1310372302E-12
 78.54918671   -0.1348019461E-12
 78.67597961   -0.1335641802E-12
 78.80277252   -0.1270996248E-12
 78.92956543   -0.1153815406E-12
 79.05635834   -0.9859317816E-13
 79.18315125   -0.7713236517E-13
 79.30994415   -0.5160741355E-13
 79.43673706   -0.2282404307E-13
 79.56352997   0.8236651717E-14
 79.69032288   0.4044881495E-13
 79.81711578   0.7258030846E-13
 79.94390869   0.1033377079E-12
 80.07070160   0.1314166061E-12
 80.19749451   0.1555550935E-12
 80.32428741   0.1745885202E-12
 80.45108032   0.1875032383E-12
 80.57787323   0.1934871669E-12
 80.70465851   0.1919743390E-12
 80.83145142   0.1826817912E-12
 80.95824432   0.1656365610E-12
 81.08503723   0.1411907971E-12
 81.21183014   0.1100241859E-12
 81.33862305   0.7313234355E-13
 81.46541595   0.3180122859E-13
 81.59220886   -0.1243226510E-13
 81.71900177   -0.5783265170E-13
 81.84579468   -0.1025295842E-12
 81.97258759   -0.1445908145E-12
 82.09938049   -0.1821018922E-12
 82.22617340   -0.2132494485E-12
 82.35296631   -0.2364047272E-12
 82.47975922   -0.2502039374E-12
 82.60655212   -0.2536213156E-12
 82.73334503   -0.2460319546E-12
 82.86013794   -0.2272604305E-12
 82.98693085   -0.1976128001E-12
 83.11372375   -0.1578896519E-12
 83.24051666   -0.1093781031E-12
 83.36730957   -0.5382219803E-13
 83.49410248   0.6627881617E-14
 83.62089539   0.6948782505E-13
 83.74768829   0.1320294107E-12
 83.87448120   0.1913867014E-12
 84.00127411   0.2446744792E-12
 84.12806702   0.2891142729E-12
 84.25485992   0.3221631675E-12
 84.38165283   0.3416401276E-12
 84.50843811   0.3458433897E-12
 84.63523102   0.3336543552E-12
 84.76202393   0.3046224026E-12
 84.88881683   0.2590250876E-12
 85.01560974   0.1979006965E-12
 85.14240265   0.1230496553E-12
 85.26919556   0.3700256993E-13
 85.39598846   -0.5704488395E-13
 85.52278137   -0.1553302842E-12
 85.64957428   -0.2536530014E-12
 85.77636719   -0.3475298662E-12
 85.90316010   -0.4323725622E-12
 86.02995300   -0.5036802139E-12
 86.15674591   -0.5572405059E-12
 86.28353882   -0.5893306134E-12
 86.41033173   -0.5969097287E-12
 86.53712463   -0.5777940518E-12
 86.66391754   -0.5308066270E-12
 86.79071045   -0.4558935152E-12
 86.91750336   -0.3541989022E-12
 87.04429626   -0.2280947783E-12
 87.17108917   -0.8116084709E-13
 87.29788208   0.8188837385E-13
 87.42467499   0.2553290424E-12
 87.55146790   0.4326015999E-12
 87.67826080   0.6065318061E-12
 87.80505371   0.7695909339E-12
 87.93184662   0.9141845267E-12
 88.05863953   0.1032963320E-11
 88.18543243   0.1119142322E-11
 88.31221771   0.1166815017E-11
 88.43901062   0.1171251139E-11
 88.56580353   0.1129163386E-11
 88.69259644   0.1038930552E-11
 88.81938934   0.9007656275E-12
 88.94618225   0.7168188569E-12
 89.07297516   0.4912080400E-12
 89.19976807   0.2299703668E-12
 89.32656097   -0.5906580292E-13
 89.45335388   -0.3664896349E-12
 89.58014679   -0.6815915562E-12
 89.70693970   -0.9927160005E-12
 89.83373260   -0.1287669515E-11
 89.96052551   -0.1554175733E-11
 90.08731842   -0.1780356570E-11
 90.21411133   -0.1955224177E-11
 90.34090424   -0.2069162550E-11
 90.46769714   -0.2114380719E-11
 90.59449005   -0.2085316078E-11
 90.72128296   -0.1978969289E-11
 90.84807587   -0.1795156255E-11
 90.97486877   -0.1536658062E-11
 91.10166168   -0.1209262725E-11
 91.22845459   -0.8216873362E-12
 91.35524750   -0.3853821830E-12
 91.48204041   0.8578531494E-13
 91.60883331   0.5759569796E-12
 91.73562622   0.1067810228E-11
 91.86241913   0.1543168371E-11
 91.98921204   0.1983672341E-11
 92.11599731   0.2371492542E-11
 92.24279022   0.2690050439E-11
 92.36958313   0.2924729686E-11
 92.49637604   0.3063534452E-11
 92.62316895   0.3097675328E-11
 92.74996185   0.3022057864E-11
 92.87675476   0.2835639926E-11
 93.00354767   0.2541646147E-11
 93.13034058   0.2147623225E-11
 93.25713348   0.1665318274E-11
 93.38392639   0.1110389450E-11
 93.51071930   0.5019466288E-12
 93.63751221   -0.1380717237E-12
 93.76430511   -0.7856584849E-12
 93.89109802   -0.1415615997E-11
 94.01789093   -0.2002522063E-11
 94.14468384   -0.2521745833E-11
 94.27147675   -0.2950478403E-11
 94.39826965   -0.3268734675E-11
 94.52506256   -0.3460285444E-11
 94.65185547   -0.3513477703E-11
 94.77864838   -0.3421909674E-11
 94.90544128   -0.3184920210E-11
 95.03223419   -0.2807870473E-11
 95.15902710   -0.2302192725E-11
 95.28582001   -0.1685195711E-11
 95.41261292   -0.9796212235E-12
 95.53940582   -0.2129619858E-12
 95.66619873   0.5834496840E-12
 95.79299164   0.1375541825E-11
 95.91977692   0.2127778205E-11
 96.04656982   0.2804543273E-11
 96.17336273   0.3371605946E-11
 96.30015564   0.3797587245E-11
 96.42694855   0.4055394909E-11
 96.55374146   0.4123552628E-11
 96.68053436   0.3987366427E-11
 96.80732727   0.3639887870E-11
 96.93412018   0.3082604267E-11
 97.06091309   0.2325838740E-11
 97.18770599   0.1388816688E-11
 97.31449890   0.2993852724E-12
 97.44129181   -0.9066166329E-12
 97.56808472   -0.2186337916E-11
 97.69487762   -0.3491201902E-11
 97.82167053   -0.4768494193E-11
 97.94846344   -0.5963173965E-11
 98.07525635   -0.7019868627E-11
 98.20204926   -0.7884973924E-11
 98.32884216   -0.8508785690E-11
 98.45563507   -0.8847592797E-11
 98.58242798   -0.8865626983E-11
 98.70922089   -0.8536820556E-11
 98.83601379   -0.7846268774E-11
 98.96280670   -0.6791344830E-11
 99.08959961   -0.5382432781E-11
 99.21639252   -0.3643177773E-11
 99.34318542   -0.1610300652E-11
 99.46997833   0.6670998931E-12
 99.59677124   0.3128694569E-11
 99.72355652   0.5704526695E-11
 99.85034943   0.8317025020E-11
 99.97714233   0.1088333503E-10
 100.1039352   0.1331794224E-10
 100.2307281   0.1553545313E-10
 100.3575211   0.1745345361E-10
 100.4843140   0.1899536084E-10
 100.6111069   0.2009313549E-10
 100.7378998   0.2068976761E-10
 100.8646927   0.2074142941E-10
 100.9914856   0.2021923427E-10
 101.1182785   0.1911048576E-10
 101.2450714   0.1741942701E-10
 101.3718643   0.1516736563E-10
 101.4986572   0.1239225823E-10
 101.6254501   0.9147716439E-11
 101.7522430   0.5501441316E-11
 101.8790359   0.1533193494E-11
 102.0058289   -0.2667665568E-11
 102.1326218   -0.7004948704E-11
 102.2594147   -0.1137863154E-10
 102.3862076   -0.1568793880E-10
 102.5130005   -0.1983440669E-10
 102.6397934   -0.2372479123E-10
 102.7665863   -0.2727372495E-10
 102.8933792   -0.3040597982E-10
 103.0201721   -0.3305825405E-10
 103.1469650   -0.3518045230E-10
 103.2737579   -0.3673633620E-10
 103.4005508   -0.3770355209E-10
 103.5273361   -0.3807303431E-10
 103.6541290   -0.3784786373E-10
 103.7809219   -0.3704153997E-10
 103.9077148   -0.3567582341E-10
 104.0345078   -0.3377829266E-10
 104.1613007   -0.3137966276E-10
 104.2880936   -0.2851105810E-10
 104.4148865   -0.2520141734E-10
 104.5416794   -0.2147514111E-10
 104.6684723   -0.1735020114E-10
 104.7952652   -0.1283677591E-10
 104.9220581   -0.7936592356E-11
 105.0488510   -0.2643095161E-11
 105.1756439   0.3057520816E-11
 105.3024368   0.9184439667E-11
 105.4292297   0.1575938859E-10
 105.5560226   0.2280299560E-10
 105.6828156   0.3033043955E-10
 105.8096085   0.3834646489E-10
 105.9364014   0.4683998675E-10
 106.0631943   0.5577851028E-10
 106.1899872   0.6510261774E-10
 106.3167801   0.7472079899E-10
 106.4435730   0.8450488226E-10
 106.5703659   0.9428641201E-10
 106.6971588   0.1038541544E-09
 106.8239517   0.1129532232E-09
 106.9507446   0.1212857870E-09
 107.0775375   0.1285137691E-09
 107.2043304   0.1342635447E-09
 107.3311157   0.1381329773E-09
 107.4579086   0.1397003069E-09
 107.5847015   0.1385354331E-09
 107.7114944   0.1342129186E-09
 107.8382874   0.1263269350E-09
 107.9650803   0.1145074036E-09
 108.0918732   0.9843741794E-10
 108.2186661   0.7787104989E-10
 108.3454590   0.5265134162E-10
 108.4722519   0.2272769299E-10
 108.5990448   -0.1182769941E-10
 108.7258377   -0.5080533910E-10
 108.8526306   -0.9384627103E-10
 108.9794235   -0.1404328459E-09
 109.1062164   -0.1898831647E-09
 109.2330093   -0.2413496625E-09
 109.3598022   -0.2938221610E-09
 109.4865952   -0.3461359810E-09
 109.6133881   -0.3969852225E-09
 109.7401810   -0.4449415003E-09
 109.8669739   -0.4884778693E-09
 109.9937668   -0.5259980229E-09
 110.1205597   -0.5558704053E-09
 110.2473526   -0.5764667077E-09
 110.3741455   -0.5862041963E-09
 110.5009384   -0.5835911754E-09
 110.6277313   -0.5672745051E-09
 110.7545242   -0.5360884514E-09
 110.8813171   -0.4891028693E-09
 111.0081024   -0.4256709152E-09
 111.1348953   -0.3454737330E-09
 111.2616882   -0.2485611161E-09
 111.3884811   -0.1353873125E-09
 111.5152740   -0.6839713258E-11
 111.6420670   0.1357397528E-09
 111.7688599   0.2905427565E-09
 111.8956528   0.4552925814E-09
 112.0224457   0.6272534714E-09
 112.1492386   0.8032511878E-09
 112.2760315   0.9797062051E-09
 112.4028244   0.1152679285E-08
 112.5296173   0.1317929099E-08
 112.6564102   0.1470982003E-08
 112.7832031   0.1607213918E-08
 112.9099960   0.1721942144E-08
 113.0367889   0.1810525618E-08