 -4.500000000   0.1678564633E-17
 -4.373207569   0.1678576421E-17
 -4.246414661   0.1678599168E-17
 -4.119622231   0.1678631014E-17
 -3.992829323   0.1678668031E-17
 -3.866036654   0.1678706805E-17
 -3.739243984   0.1678743718E-17
 -3.612451553   0.1678775564E-17
 -3.485658884   0.1678800173E-17
 -3.358866215   0.1678817750E-17
 -3.232073545   0.1678827160E-17
 -3.105280876   0.1678830158E-17
 -2.978488207   0.1678829228E-17
 -2.851695538   0.1678826643E-17
 -2.724902868   0.1678826022E-17
 -2.598110199   0.1678830468E-17
 -2.471317530   0.1678841118E-17
 -2.344524860   0.1678860557E-17
 -2.217732191   0.1678888268E-17
 -2.090939522   0.1678922389E-17
 -1.964146972   0.1678961370E-17
 -1.837354302   0.1679002729E-17
 -1.710561633   0.1679043054E-17
 -1.583768964   0.1679078519E-17
 -1.456976295   0.1679107264E-17
 -1.330183744   0.1679127633E-17
 -1.203391075   0.1679139420E-17
 -1.076598406   0.1679142315E-17
 -0.9498057365   0.1679137766E-17
 -0.8230130672   0.1679129287E-17
 -0.6962204576   0.1679118637E-17
 -0.5694277883   0.1679110262E-17
 -0.4426351190   0.1679105816E-17
 -0.3158424795   0.1679107677E-17
 -0.1890498251   0.1679116983E-17
 -0.6225717068E-01   0.1679134250E-17
 0.6453548372E-01   0.1679159686E-17
 0.1913281381   0.1679190292E-17
 0.3181207776   0.1679224620E-17
 0.4449134469   0.1679258948E-17
 0.5717061162   0.1679291932E-17
 0.6984987259   0.1679320780E-17
 0.8252913952   0.1679343631E-17
 0.9520840645   0.1679359761E-17
 1.078876734   0.1679368963E-17
 1.205669403   0.1679372375E-17
 1.332461953   0.1679371031E-17
 1.459254622   0.1679367205E-17
 1.586047292   0.1679363586E-17
 1.712839961   0.1679362656E-17
 1.839632630   0.1679365654E-17
 1.966425300   0.1679374340E-17
 2.093217850   0.1679389746E-17
 2.220010519   0.1679411149E-17
 2.346803188   0.1679438653E-17
 2.473595858   0.1679469672E-17
 2.600388527   0.1679502139E-17
 2.727181196   0.1679533986E-17
 2.853973866   0.1679563247E-17
 2.980766535   0.1679588476E-17
 3.107559204   0.1679606984E-17
 3.234351873   0.1679618875E-17
 3.361144543   0.1679623941E-17
 3.487936974   0.1679623218E-17
 3.614729643   0.1679618565E-17
 3.741522312   0.1679612361E-17
 3.868314981   0.1679606364E-17
 3.995107651   0.1679602331E-17
 4.121900558   0.1679602952E-17
 4.248692989   0.1679609466E-17
 4.375485420   0.1679621667E-17
 4.502278328   0.1679640485E-17
 4.629070759   0.1679663646E-17
 4.755863667   0.1679689392E-17
 4.882656097   0.1679716069E-17
 5.009449005   0.1679740781E-17
 5.136241436   0.1679760530E-17
 5.263034344   0.1679774178E-17
 5.389826775   0.1679779658E-17
 5.516619682   0.1679777280E-17
 5.643412113   0.1679768284E-17
 5.770205021   0.1679753292E-17
 5.896997452   0.1679734680E-17
 6.023790359   0.1679714931E-17
 6.150582790   0.1679696320E-17
 6.277375221   0.1679680913E-17
 6.404168129   0.1679670057E-17
 6.530960560   0.1679664577E-17
 6.657753468   0.1679665094E-17
 6.784545898   0.1679670884E-17
 6.911338806   0.1679680396E-17
 7.038131237   0.1679691253E-17
 7.164924145   0.1679702007E-17
 7.291716576   0.1679710589E-17
 7.418509483   0.1679715035E-17
 7.545301914   0.1679714001E-17
 7.672094822   0.1679707797E-17
 7.798887253   0.1679696320E-17
 7.925679684   0.1679679983E-17
 8.052472115   0.1679661061E-17
 8.179265022   0.1679641105E-17
 8.306057930   0.1679622494E-17
 8.432850838   0.1679607294E-17
 8.559642792   0.1679597265E-17
 8.686435699   0.1679593026E-17
 8.813228607   0.1679594370E-17
 8.940021515   0.1679601608E-17
 9.066813469   0.1679612774E-17
 9.193606377   0.1679626009E-17
 9.320399284   0.1679639244E-17
 9.447192192   0.1679649274E-17
 9.573984146   0.1679655478E-17
 9.700777054   0.1679656201E-17
 9.827569962   0.1679651032E-17
 9.954361916   0.1679640175E-17
 10.08115482   0.1679624562E-17
 10.20794773   0.1679605950E-17
 10.33474064   0.1679586511E-17
 10.46153259   0.1679568314E-17
 10.58832550   0.1679553114E-17
 10.71511841   0.1679542981E-17
 10.84191132   0.1679539052E-17
 10.96870327   0.1679541223E-17
 11.09549618   0.1679549185E-17
 11.22228909   0.1679561489E-17
 11.34908199   0.1679576172E-17
 11.47587395   0.1679591061E-17
 11.60266685   0.1679604709E-17
 11.72945976   0.1679614842E-17
 11.85625172   0.1679619909E-17
 11.98304462   0.1679620426E-17
 12.10983753   0.1679614842E-17
 12.23663044   0.1679604089E-17
 12.36342239   0.1679589717E-17
 12.49021530   0.1679572760E-17
 12.61700821   0.1679554975E-17
 12.74380112   0.1679537811E-17
 12.87059307   0.1679522819E-17
 12.99738598   0.1679510514E-17
 13.12417889   0.1679502139E-17
 13.25097084   0.1679498003E-17
 13.37776375   0.1679497486E-17
 13.50455666   0.1679500381E-17
 13.63134956   0.1679504517E-17
 13.75814152   0.1679509377E-17
 13.88493443   0.1679512996E-17
 14.01172733   0.1679513926E-17
 14.13852024   0.1679509997E-17
 14.26531219   0.1679501105E-17
 14.39210510   0.1679487250E-17
 14.51889801   0.1679468121E-17
 14.64569092   0.1679445374E-17
 14.77248287   0.1679419835E-17
 14.89927578   0.1679392951E-17
 15.02606869   0.1679366895E-17
 15.15286064   0.1679344148E-17
 15.27965355   0.1679326260E-17
 15.40644646   0.1679314472E-17
 15.53323936   0.1679310026E-17
 15.66003132   0.1679312094E-17
 15.78682423   0.1679319642E-17
 15.91361713   0.1679329775E-17
 16.04040909   0.1679340425E-17
 16.16720200   0.1679348283E-17
 16.29399490   0.1679350145E-17
 16.42078781   0.1679344251E-17
 16.54758072   0.1679329568E-17
 16.67437363   0.1679305373E-17
 16.80116463   0.1679273424E-17
 16.92795753   0.1679236717E-17
 17.05475044   0.1679197840E-17
 17.18154335   0.1679159893E-17
 17.30833626   0.1679127116E-17
 17.43512917   0.1679102094E-17
 17.56192207   0.1679086481E-17
 17.68871498   0.1679080691E-17
 17.81550598   0.1679084723E-17
 17.94229889   0.1679094959E-17
 18.06909180   0.1679109332E-17
 18.19588470   0.1679123601E-17
 18.32267761   0.1679134871E-17
 18.44947052   0.1679139007E-17
 18.57626343   0.1679133733E-17
 18.70305443   0.1679118534E-17
 18.82984734   0.1679093719E-17
 18.95664024   0.1679061665E-17
 19.08343315   0.1679024546E-17
 19.21022606   0.1678986702E-17
 19.33701897   0.1678951547E-17
 19.46381187   0.1678922492E-17
 19.59060478   0.1678902743E-17
 19.71739578   0.1678893231E-17
 19.84418869   0.1678894161E-17
 19.97098160   0.1678904087E-17
 20.09777451   0.1678920734E-17
 20.22456741   0.1678941414E-17
 20.35136032   0.1678961370E-17
 20.47815323   0.1678977913E-17
 20.60494423   0.1678987426E-17
 20.73173714   0.1678987943E-17
 20.85853004   0.1678977603E-17
 20.98532295   0.1678957234E-17
 21.11211586   0.1678928593E-17
 21.23890877   0.1678895299E-17
 21.36570168   0.1678860660E-17
 21.49249458   0.1678829021E-17
 21.61928558   0.1678804102E-17
 21.74607849   0.1678788489E-17
 21.87287140   0.1678784353E-17
 21.99966431   0.1678790867E-17
 22.12645721   0.1678806480E-17
 22.25325012   0.1678828090E-17
 22.38004303   0.1678850838E-17
 22.50683403   0.1678870380E-17
 22.63362694   0.1678882477E-17
 22.76041985   0.1678884235E-17
 22.88721275   0.1678873792E-17
 23.01400566   0.1678851148E-17
 23.14079857   0.1678817957E-17
 23.26759148   0.1678777115E-17
 23.39438438   0.1678733481E-17
 23.52117538   0.1678691709E-17
 23.64796829   0.1678656037E-17
 23.77476120   0.1678631118E-17
 23.90155411   0.1678618400E-17
 24.02834702   0.1678618607E-17
 24.15513992   0.1678629877E-17
 24.28193283   0.1678649833E-17
 24.40872383   0.1678673201E-17
 24.53551674   0.1678695535E-17
 24.66230965   0.1678711871E-17
 24.78910255   0.1678719316E-17
 24.91589546   0.1678715180E-17
 25.04268837   0.1678698326E-17
 25.16948128   0.1678670512E-17
 25.29627419   0.1678634013E-17
 25.42306519   0.1678593171E-17
 25.54985809   0.1678551502E-17
 25.67665100   0.1678514382E-17
 25.80344391   0.1678484190E-17
 25.93023682   0.1678464027E-17
 26.05702972   0.1678455239E-17
 26.18382263   0.1678456479E-17
 26.31061363   0.1678466199E-17
 26.43740654   0.1678480157E-17
 26.56419945   0.1678495047E-17
 26.69099236   0.1678506524E-17
 26.81778526   0.1678511177E-17
 26.94457817   0.1678506007E-17
 27.07137108   0.1678490187E-17
 27.19816399   0.1678464544E-17
 27.32495499   0.1678430940E-17
 27.45174789   0.1678392373E-17
 27.57854080   0.1678351841E-17
 27.70533371   0.1678314308E-17
 27.83212662   0.1678281737E-17
 27.95891953   0.1678256508E-17
 28.08571243   0.1678240275E-17
 28.21250343   0.1678232727E-17
 28.33929634   0.1678231590E-17
 28.46608925   0.1678235519E-17
 28.59288216   0.1678241516E-17
 28.71967506   0.1678245652E-17
 28.84646797   0.1678246479E-17
 28.97326088   0.1678240999E-17
 29.10005379   0.1678229005E-17
 29.22684479   0.1678210290E-17
 29.35363770   0.1678185785E-17
 29.48043060   0.1678156523E-17
 29.60722351   0.1678124366E-17
 29.73401642   0.1678091796E-17
 29.86080933   0.1678060363E-17
 29.98760223   0.1678030998E-17
 30.11439323   0.1678005563E-17
 30.24118614   0.1677983539E-17
 30.36797905   0.1677965237E-17
 30.49477196   0.1677949624E-17
 30.62156487   0.1677936596E-17
 30.74835777   0.1677923878E-17
 30.87515068   0.1677910954E-17
 31.00194168   0.1677896375E-17
 31.12873459   0.1677879934E-17
 31.25552750   0.1677861013E-17
 31.38232040   0.1677838575E-17
 31.50911331   0.1677813967E-17
 31.63590622   0.1677787394E-17
 31.76269913   0.1677759786E-17
 31.88949203   0.1677732076E-17
 32.01628494   0.1677705813E-17
 32.14307785   0.1677681721E-17
 32.26987076   0.1677661145E-17
 32.39666367   0.1677644808E-17
 32.52345276   0.1677632814E-17
 32.65024567   0.1677625576E-17
 32.77703857   0.1677622475E-17
 32.90383148   0.1677623198E-17
 33.03062439   0.1677627127E-17
 33.15741730   0.1677632297E-17
 33.28421021   0.1677637571E-17
 33.41100311   0.1677641293E-17
 33.53779602   0.1677642430E-17
 33.66458893   0.1677641086E-17
 33.79138184   0.1677636433E-17
 33.91817474   0.1677629816E-17
 34.04496765   0.1677621337E-17
 34.17176056   0.1677612135E-17
 34.29855347   0.1677603243E-17
 34.42534256   0.1677595488E-17
 34.55213547   0.1677589594E-17
 34.67892838   0.1677585872E-17
 34.80572128   0.1677583907E-17
 34.93251419   0.1677582356E-17
 35.05930710   0.1677581529E-17
 35.18610001   0.1677578634E-17
 35.31289291   0.1677573154E-17
 35.43968582   0.1677563951E-17
 35.56647873   0.1677550096E-17
 35.69327164   0.1677530864E-17
 35.82006454   0.1677505739E-17
 35.94685745   0.1677474719E-17
 36.07365036   0.1677438840E-17
 36.20044327   0.1677397585E-17
 36.32723236   0.1677351263E-17
 36.45402527   0.1677300908E-17
 36.58081818   0.1677247038E-17
 36.70761108   0.1677190686E-17
 36.83440399   0.1677133301E-17
 36.96119690   0.1677076225E-17
 37.08798981   0.1677020804E-17
 37.21478271   0.1676969312E-17
 37.34157562   0.1676923093E-17
 37.46836853   0.1676884319E-17
 37.59516144   0.1676854644E-17
 37.72195435   0.1676836239E-17
 37.84874725   0.1676831483E-17
 37.97554016   0.1676842030E-17
 38.10232925   0.1676870464E-17
 38.22912216   0.1676918544E-17
 38.35591507   0.1676989371E-17
 38.48270798   0.1677085427E-17
 38.60950089   0.1677208884E-17
 38.73629379   0.1677361913E-17
 38.86308670   0.1677545443E-17
 38.98987961   0.1677759890E-17
 39.11667252   0.1678003701E-17
 39.24346542   0.1678275223E-17
 39.37025833   0.1678570010E-17
 39.49705124   0.1678882994E-17
 39.62384415   0.1679207663E-17
 39.75063705   0.1679536364E-17
 39.87742996   0.1679859378E-17
 40.00421906   0.1680168330E-17
 40.13101196   0.1680454327E-17
 40.25780487   0.1680709099E-17
 40.38459778   0.1680925510E-17
 40.51139069   0.1681098598E-17
 40.63818359   0.1681226914E-17
 40.76497650   0.1681310976E-17
 40.89176941   0.1681355954E-17
 41.01856232   0.1681370843E-17
 41.14535522   0.1681369809E-17
 41.27214813   0.1681373015E-17
 41.39894104   0.1681406309E-17
 41.52573395   0.1681498643E-17
 41.65252686   0.1681685275E-17
 41.77931976   0.1682004360E-17
 41.90610886   0.1682497050E-17
 42.03290176   0.1683202428E-17
 42.15969467   0.1684159786E-17
 42.28648758   0.1685401798E-17
 42.41328049   0.1686953382E-17
 42.54007339   0.1688830048E-17
 42.66686630   0.1691032106E-17
 42.79365921   0.1693544461E-17
 42.92045212   0.1696332163E-17
 43.04724503   0.1699339068E-17
 43.17403793   0.1702488248E-17
 43.30083084   0.1705679510E-17
 43.42762375   0.1708791157E-17
 43.55441666   0.1711683704E-17
 43.68120956   0.1714201642E-17
 43.80799866   0.1716178190E-17
 43.93479156   0.1717445327E-17
 44.06158447   0.1717838238E-17
 44.18837738   0.1717206479E-17
 44.31517029   0.1715425559E-17
 44.44196320   0.1712404592E-17
 44.56875610   0.1708103563E-17
 44.69554901   0.1702542738E-17
 44.82234192   0.1695814037E-17
 44.94913483   0.1688090135E-17
 45.07592773   0.1679631903E-17
 45.20272064   0.1670793065E-17
 45.32951355   0.1662017195E-17
 45.45630646   0.1653835655E-17
 45.58309937   0.1646851769E-17
 45.70988846   0.1641727696E-17
 45.83668137   0.1639155061E-17
 45.96347427   0.1639828799E-17
 46.09026718   0.1644406417E-17
 46.21706009   0.1653466836E-17
 46.34385300   0.1667465214E-17
 46.47064590   0.1686684548E-17
 46.59743881   0.1711186362E-17
 46.72423172   0.1740767685E-17
 46.85102463   0.1774921352E-17
 46.97781754   0.1812802088E-17
 47.10461044   0.1853212963E-17
 47.23140335   0.1894597016E-17
 47.35819626   0.1935055660E-17
 47.48498917   0.1972379290E-17
 47.61177826   0.2004108077E-17
 47.73857117   0.2027613242E-17
 47.86536407   0.2040199829E-17
 47.99215698   0.2039235956E-17
 48.11894989   0.2022300467E-17
 48.24574280   0.1987347330E-17
 48.37253571   0.1932879762E-17
 48.49932861   0.1858128484E-17
 48.62612152   0.1763226259E-17
 48.75291443   0.1649362883E-17
 48.87970734   0.1518917224E-17
 49.00650024   0.1375550487E-17
 49.13329315   0.1224248193E-17
 49.26008606   0.1071303325E-17
 49.38687897   0.9242268896E-18
 49.51366806   0.7915806201E-18
 49.64046097   0.6827245821E-18
 49.76725388   0.6074803045E-18
 49.89404678   0.5757113474E-18
 50.02083969   0.5968273039E-18
 50.14763260   0.6792261768E-18
 50.27442551   0.8296912091E-18
 50.40121841   0.1052769102E-17
 50.52801132   0.1350149942E-17
 50.65480423   0.1720094890E-17
 50.78159714   0.2156933831E-17
 50.90839005   0.2650678973E-17
 51.03518295   0.3186794994E-17
 51.16197586   0.3746158306E-17
 51.28876877   0.4305240996E-17
 51.41555786   0.4836547789E-17
 51.54235077   0.5309324936E-17
 51.66914368   0.5690550974E-17
 51.79593658   0.5946204791E-17
 51.92272949   0.6042785985E-17
 52.04952240   0.5949067249E-17
 52.17631531   0.5638006807E-17
 52.30310822   0.5088771288E-17
 52.42990112   0.4288767281E-17
 52.55669403   0.3235594307E-17
 52.68348694   0.1938803822E-17
 52.81027985   0.4213427722E-18
 52.93707275   -0.1279432720E-17
 53.06386566   -0.3111296772E-17
 53.19065857   -0.5007353555E-17
 53.31744766   -0.6886989148E-17
 53.44424057   -0.8657643695E-17
 53.57103348   -0.1021744411E-16
 53.69782639   -0.1145869480E-16
 53.82461929   -0.1227219467E-16
 53.95141220   -0.1255227472E-16
 54.07820511   -0.1220243357E-16
 54.20499802   -0.1114138087E-16
 54.33179092   -0.9309247778E-17
 54.45858383   -0.6673688219E-17
 54.58537674   -0.3235561427E-17
 54.71216965   0.9661439569E-18
 54.83896255   0.5850501234E-17
 54.96575546   0.1129228839E-16
 55.09254837   0.1712142272E-16
 55.21933746   0.2312443456E-16
 55.34613037   0.2904827032E-16
 55.47292328   0.3460649721E-16
 55.59971619   0.3948799110E-16
 55.72650909   0.4336806374E-16
 55.85330200   0.4592176881E-16
 55.98009491   0.4683912866E-16
 56.10688782   0.4584177383E-16
 56.23368073   0.4270041649E-16
 56.36047363   0.3725244285E-16
 56.48726654   0.2941876451E-16
 56.61405945   0.1921911140E-16
 56.74085236   0.6784732667E-17
 56.86764526   -0.7632374833E-17
 56.99443817   -0.2365463582E-16
 57.12122726   -0.4077928621E-16
 57.24802017   -0.5838463771E-16
 57.37481308   -0.7574273170E-16
 57.50160599   -0.9203856696E-16
 57.62839890   -0.1063959475E-15
 57.75519180   -0.1179095274E-15
 57.88198471   -0.1256823120E-15
 58.00877762   -0.1288677911E-15
 58.13557053   -0.1267150436E-15
 58.26236343   -0.1186152779E-15
 58.38915634   -0.1041477963E-15
 58.51594925   -0.8312316800E-16
 58.64274216   -0.5562118611E-16
 58.76953506   -0.2202138425E-16
 58.89632797   0.1697638488E-16
 59.02311707   0.6034340802E-16
 59.14990997   0.1067274550E-15
 59.27670288   0.1544735442E-15
 59.40349579   0.2016608629E-15
 59.53028870   0.2461563772E-15
 59.65708160   0.2856843343E-15
 59.78387451   0.3179106292E-15
 59.91066742   0.3405399085E-15
 60.03746033   0.3514222966E-15
 60.16425323   0.3486662897E-15
 60.29104614   0.3307531840E-15
 60.41783905   0.2966481964E-15
 60.54463196   0.2459024526E-15
 60.67142487   0.1787410249E-15
 60.79821777   0.9613040446E-16
 60.92500687   -0.1792094035E-18
 61.05179977   -0.1076416616E-15
 61.17859268   -0.2229369541E-15
 61.30538559   -0.3420300512E-15
 61.43217850   -0.4602679097E-15
 61.55897141   -0.5725149159E-15
 61.68576431   -0.6733240128E-15
 61.81255722   -0.7571409405E-15
 61.93935013   -0.8185347355E-15
 62.06614304   -0.8524476583E-15
 62.19293594   -0.8544560264E-15
 62.31972885   -0.8210296181E-15
 62.44652176   -0.7497803300E-15
 62.57331467   -0.6396856345E-15
 62.70010757   -0.4912761448E-15
 62.82689667   -0.3067737342E-15
 62.95368958   -0.9017013801E-16
 63.08048248   0.1527641787E-15
 63.20727539   0.4145482741E-15
 63.33406830   0.6861406271E-15
 63.46086121   0.9571722179E-15
 63.58765411   0.1216261279E-14
 63.71444702   0.1451403025E-14
 63.84123993   0.1650424851E-14
 63.96803284   0.1801493389E-14
 64.09482574   0.1893656715E-14
 64.22161865   0.1917399472E-14
 64.34841156   0.1865189632E-14
 64.47520447   0.1731989465E-14
 64.60199738   0.1515707755E-14
 64.72879028   0.1217566663E-14
 64.85558319   0.8423570077E-15
 64.98237610   0.3985634918E-15
 65.10916901   -0.1016595378E-15
 65.23596191   -0.6426738609E-15
 65.36275482   -0.1205711696E-14
 65.48954773   -0.1769398146E-14
 65.61633301   -0.2310433136E-14
 65.74312592   -0.2804419997E-14
 65.86991882   -0.3226813094E-14
 65.99671173   -0.3553957970E-14
 66.12350464   -0.3764181383E-14
 66.25029755   -0.3838895195E-14
 66.37709045   -0.3763657070E-14
 66.50388336   -0.3529145199E-14
 66.63067627   -0.3131996014E-14
 66.75746918   -0.2575450898E-14
 66.88426208   -0.1869772080E-14
 67.01105499   -0.1032388214E-14
 67.13784790   -0.8773931889E-16
 67.26464081   0.9331958915E-15
 67.39143372   0.1993698082E-14
 67.51822662   0.3052422986E-14
 67.64501953   0.4064809893E-14
 67.77181244   0.4984747813E-14
 67.89860535   0.5766448262E-14
 68.02539825   0.6366453368E-14
 68.15219116   0.6745713217E-14
 68.27898407   0.6871630171E-14
 68.40577698   0.6719993485E-14
 68.53256989   0.6276702604E-14
 68.65936279   0.5539178735E-14
 68.78615570   0.4517395691E-14
 68.91294861   0.3234431943E-14
 69.03974152   0.1726494021E-14
 69.16653442   0.4236567304E-16
 69.29332733   -0.1757745302E-14
 69.42011261   -0.3603952396E-14
 69.54690552   -0.5419008053E-14
 69.67369843   -0.7121128807E-14
 69.80049133   -0.8627244867E-14
 69.92728424   -0.9856574277E-14
 70.05407715   -0.1073438332E-13
 70.18087006   -0.1119576809E-13
 70.30766296   -0.1118932217E-13
 70.43445587   -0.1068049508E-13
 70.56124878   -0.9654478145E-14
 70.68804169   -0.8118442340E-14
 70.81483459   -0.6102996052E-14
 70.94162750   -0.3662714460E-14
 71.06842041   -0.8756560434E-15
 71.19521332   0.2158202257E-14
 71.32200623   0.5319624407E-14
 71.44879913   0.8473842118E-14
 71.57559204   0.1147528389E-13
 71.70238495   0.1417315074E-13
 71.82917786   0.1641770758E-13
 71.95597076   0.1806703489E-13
 72.08276367   0.1899398539E-13
 72.20955658   0.1909309672E-13
 72.33634949   0.1828712285E-13
 72.46314240   0.1653286171E-13
 72.58993530   0.1382600868E-13
 72.71672821   0.1020470143E-13
 72.84352112   0.5751532012E-14
 72.97031403   0.5937933894E-15
 73.09710693   -0.5098186701E-14
 73.22389221   -0.1111470619E-13
 73.35068512   -0.1721236170E-13
 73.47747803   -0.2312165148E-13
 73.60427094   -0.2855633685E-13
 73.73106384   -0.3322430831E-13
 73.85785675   -0.3683965839E-13
 73.98464966   -0.3913547004E-13
 74.11144257   -0.3987694574E-13
 74.23823547   -0.3887427896E-13
 74.36502838   -0.3599472269E-13
 74.49182129   -0.3117334339E-13
 74.61861420   -0.2442183689E-13
 74.74540710   -0.1583493197E-13
 74.87220001   -0.5593902145E-14
 74.99899292   0.6033155644E-14
 75.12578583   0.1869460329E-13
 75.25257874   0.3196219873E-13
 75.37937164   0.4534172788E-13
 75.50616455   0.5828723057E-13
 75.63295746   0.7021842824E-13
 75.75975037   0.8054106291E-13
 75.88654327   0.8866942825E-13
 76.01333618   0.9405047948E-13
 76.14012909   0.9618860070E-13
 76.26692200   0.9467024332E-13
 76.39371490   0.8918732452E-13
 76.52050781   0.7955845049E-13
 76.64730072   0.6574700907E-13
 76.77409363   0.4787510855E-13
 76.90088654   0.2623261038E-13
 77.02767181   0.1280454730E-14
 77.15446472   -0.2635219788E-13
 77.28125763   -0.5587743538E-13
 77.40805054   -0.8636475324E-13
 77.53484344   -0.1167638441E-12
 77.66163635   -0.1459335989E-12
 77.78842926   -0.1726767600E-12
 77.91522217   -0.1957793330E-12
 78.04201508   -0.2140535470E-12
 78.16880798   -0.2263834465E-12
 78.29560089   -0.2317709284E-12
 78.42239380   -0.2293814010E-12
 78.54918671   -0.2185868538E-12
 78.67597961   -0.1990047260E-12
 78.80277252   -0.1705310155E-12
 78.92956543   -0.1333660558E-12
 79.05635834   -0.8803126685E-13
 79.18315125   -0.3537608371E-13
 79.30994415   0.2342612934E-13
 79.43673706   0.8689369482E-13
 79.56352997   0.1532640524E-12
 79.69032288   0.2205326172E-12
 79.81711578   0.2865029991E-12
 79.94390869   0.3488468195E-12
 80.07070160   0.4051726673E-12
 80.19749451   0.4531016675E-12
 80.32428741   0.4903478340E-12
 80.45108032   0.5148009297E-12
 80.57787323   0.5246092731E-12
 80.70465851   0.5182593178E-12
 80.83145142   0.4946493519E-12
 80.95824432   0.4531551458E-12
 81.08503723   0.3936837835E-12
 81.21183014   0.3167141300E-12
 81.33862305   0.2233214292E-12
 81.46541595   0.1151839176E-12
 81.59220886   -0.5428899280E-14
 81.71900177   -0.1356880645E-12
 81.84579468   -0.2722566909E-12
 81.97258759   -0.4113607783E-12
 82.09938049   -0.5488783798E-12
 82.22617340   -0.6804452292E-12
 82.35296631   -0.8015743559E-12
 82.47975922   -0.9077875170E-12
 82.60655212   -0.9947537585E-12
 82.73334503   -0.1058432313E-11
 82.86013794   -0.1095215064E-11
 82.98693085   -0.1102064403E-11
 83.11372375   -0.1076642031E-11
 83.24051666   -0.1017423559E-11
 83.36730957   -0.9237960874E-12
 83.49410248   -0.7961333415E-12
 83.62089539   -0.6358456513E-12
 83.74768829   -0.4454012571E-12
 83.87448120   -0.2283178529E-12
 84.00127411   0.1087806213E-13
 84.12806702   0.2667241970E-12
 84.25485992   0.5329272722E-12
 84.38165283   0.8024984214E-12
 84.50843811   0.1067916588E-11
 84.63523102   0.1321316103E-11
 84.76202393   0.1554696042E-11
 84.88881683   0.1760143463E-11
 85.01560974   0.1930066567E-11
 85.14240265   0.2057431699E-11
 85.26919556   0.2135995807E-11
 85.39598846   0.2160529134E-11
 85.52278137   0.2127019914E-11
 85.64957428   0.2032854137E-11
 85.77636719   0.1876964946E-11
 85.90316010   0.1659946377E-11
 86.02995300   0.1384123176E-11
 86.15674591   0.1053576497E-11
 86.28353882   0.6741208611E-12
 86.41033173   0.2532301625E-12
 86.53712463   -0.2000858653E-12
 86.66391754   -0.6754547009E-12
 86.79071045   -0.1161360613E-11
 86.91750336   -0.1645405383E-11
 87.04429626   -0.2114606667E-11
 87.17108917   -0.2555724729E-11
 87.29788208   -0.2955612101E-11
 87.42467499   -0.3301573424E-11
 87.55146790   -0.3581729531E-11
 87.67826080   -0.3785373924E-11
 87.80505371   -0.3903309967E-11
 87.93184662   -0.3928161615E-11
 88.05863953   -0.3854645769E-11
 88.18543243   -0.3679796919E-11
 88.31221771   -0.3403138448E-11
 88.43901062   -0.3026791491E-11
 88.56580353   -0.2555517863E-11
 88.69259644   -0.1996694693E-11
 88.81938934   -0.1360215868E-11
 88.94618225   -0.6583259870E-12
 89.07297516   0.9461517263E-13
 89.19976807   0.8824281366E-12
 89.32656097   0.1687468091E-11
 89.45335388   0.2491023447E-11
 89.58014679   0.3273753230E-11
 89.70693970   0.4016150260E-11
 89.83373260   0.4699017651E-11
 89.96052551   0.5303947385E-11
 90.08731842   0.5813786952E-11
 90.21411133   0.6213079530E-11
 90.34090424   0.6488470785E-11
 90.46769714   0.6629067087E-11
 90.59449005   0.6626736920E-11
 90.72128296   0.6476345502E-11
 90.84807587   0.6175923922E-11
 90.97486877   0.5726757176E-11
 91.10166168   0.5133400649E-11
 91.22845459   0.4403618095E-11
 91.35524750   0.3548250452E-11
 91.48204041   0.2581009842E-11
 91.60883331   0.1518220012E-11
 91.73562622   0.3784979871E-12
 91.86241913   -0.8176047187E-12
 91.98921204   -0.2047997405E-11
 92.11599731   -0.3289465055E-11
 92.24279022   -0.4518098569E-11
 92.36958313   -0.5709723493E-11
 92.49637604   -0.6840324314E-11
 92.62316895   -0.7886451908E-11
 92.74996185   -0.8825608647E-11
 92.87675476   -0.9636604882E-11
 93.00354767   -0.1029988334E-10
 93.13034058   -0.1079781403E-10
 93.25713348   -0.1111495358E-10
 93.38392639   -0.1123827073E-10
 93.51071930   -0.1115734848E-10
 93.63751221   -0.1086455231E-10
 93.76430511   -0.1035518633E-10
 93.89109802   -0.9627625086E-11
 94.01789093   -0.8683429843E-11
 94.14468384   -0.7527461293E-11
 94.27147675   -0.6167974551E-11
 94.39826965   -0.4616705022E-11
 94.52506256   -0.2888945376E-11
 94.65185547   -0.1003600306E-11
 94.77864838   0.1016778892E-11
 94.90544128   0.3145994749E-11
 95.03223419   0.5354243091E-11
 95.15902710   0.7608211804E-11
 95.28582001   0.9871242712E-11
 95.41261292   0.1210357942E-10
 95.53940582   0.1426270040E-10
 95.66619873   0.1630376736E-10
 95.79299164   0.1818017438E-10
 95.91977692   0.1984423043E-10
 96.04656982   0.2124794611E-10
 96.17336273   0.2234397216E-10
 96.30015564   0.2308660381E-10
 96.42694855   0.2343293094E-10
 96.55374146   0.2334403851E-10
 96.68053436   0.2278627807E-10
 96.80732727   0.2173256367E-10
 96.93412018   0.2016365547E-10
 97.06091309   0.1806939494E-10
 97.18770599   0.1544986014E-10
 97.31449890   0.1231637275E-10
 97.44129181   0.8692335914E-11
 97.56808472   0.4613837958E-11
 97.69487762   0.1300060862E-12
 97.82167053   -0.4696958534E-11
 97.94846344   -0.9792064729E-11
 98.07525635   -0.1506817414E-10
 98.20204926   -0.2042702292E-10
 98.32884216   -0.2576058984E-10
 98.45563507   -0.3095286874E-10
 98.58242798   -0.3588193631E-10
 98.70922089   -0.4042239113E-10
 98.83601379   -0.4444800430E-10
 98.96280670   -0.4783462515E-10
 99.08959961   -0.5046324469E-10
 99.21639252   -0.5222310084E-10
 99.34318542   -0.5301485292E-10
 99.46997833   -0.5275359663E-10
 99.59677124   -0.5137179571E-10
 99.72355652   -0.4882191873E-10
 99.85034943   -0.4507876711E-10
 99.97714233   -0.4014139715E-10
 100.1039352   -0.3403458765E-10
 100.2307281   -0.2680976795E-10
 100.3575211   -0.1854540133E-10
 100.4843140   -0.9346745600E-11
 100.6111069   0.6549710318E-12
 100.7378998   0.1130399507E-10
 100.8646927   0.2242209370E-10
 100.9914856   0.3381115180E-10
 101.1182785   0.4525630565E-10
 101.2450714   0.5652953106E-10
 101.3718643   0.6739357683E-10
 101.4986572   0.7760633108E-10
 101.6254501   0.8692528641E-10
 101.7522430   0.9511226529E-10
 101.8790359   0.1019381246E-09
 102.0058289   0.1071874464E-09
 102.1326218   0.1106632078E-09
 102.2594147   0.1121910898E-09
 102.3862076   0.1116237103E-09
 102.5130005   0.1088443988E-09
 102.6397934   0.1037706587E-09
 102.7665863   0.9635715836E-10
 102.8933792   0.8659833961E-10
 103.0201721   0.7453041656E-10
 103.1469650   0.6023291588E-10
 103.2737579   0.4382965518E-10
 103.4005508   0.2548918021E-10
 103.5273361   0.5424589597E-11
 103.6541290   -0.1610727871E-10
 103.7809219   -0.3880718316E-10
 103.9077148   -0.6233555339E-10
 104.0345078   -0.8631516335E-10
 104.1613007   -0.1103345956E-09
 104.2880936   -0.1339523076E-09
 104.4148865   -0.1567016100E-09
 104.5416794   -0.1780962600E-09
 104.6684723   -0.1976370873E-09
 104.7952652   -0.2148191902E-09
 104.9220581   -0.2291401374E-09
 105.0488510   -0.2401089605E-09
 105.1756439   -0.2472557714E-09
 105.3024368   -0.2501422958E-09
 105.4292297   -0.2483727113E-09
 105.5560226   -0.2416052358E-09
 105.6828156   -0.2295638124E-09
 105.8096085   -0.2120498083E-09
 105.9364014   -0.1889536999E-09
 106.0631943   -0.1602661615E-09
 106.1899872   -0.1260882926E-09
 106.3167801   -0.8664077789E-10
 106.4435730   -0.4227140513E-10
 106.5703659   0.6539286473E-11
 106.6971588   0.5917469986E-10
 106.8239517   0.1148816459E-09
 106.9507446   0.1727728377E-09
 107.0775375   0.2318327336E-09
 107.2043304   0.2909270602E-09
 107.3311157   0.3488161981E-09
 107.4579086   0.4041725288E-09
 107.5847015   0.4556015565E-09
 107.7114944   0.5016669857E-09
 107.8382874   0.5409195314E-09
 107.9650803   0.5719287821E-09
 108.0918732   0.5933177838E-09
 108.2186661   0.6038003431E-09
 108.3454590   0.6022189969E-09
 108.4722519   0.5875839815E-09
 108.5990448   0.5591122010E-09
 108.7258377   0.5162640315E-09
 108.8526306   0.4587782654E-09
 108.9794235   0.3867033915E-09
 109.1062164   0.3004236582E-09
 109.2330093   0.2006798894E-09
 109.3598022   0.8858300898E-10
 109.4865952   -0.3438013069E-10
 109.6133881   -0.1663496424E-09
 109.7401810   -0.3051050801E-09
 109.8669739   -0.4480875115E-09
 109.9937668   -0.5924319924E-09
 110.1205597   -0.7350098863E-09
 110.2473526   -0.8724811984E-09
 110.3741455   -0.1001356553E-08
 110.5009384   -0.1118066972E-08
 110.6277313   -0.1219042312E-08
 110.7545242   -0.1300794361E-08
 110.8813171   -0.1360005664E-08
 111.0081024   -0.1393619886E-08
 111.1348953   -0.1398933636E-08
 111.2616882   -0.1373685610E-08
 111.3884811   -0.1316142861E-08
 111.5152740   -0.1225179513E-08
 111.6420670   -0.1100347702E-08
 111.7688599   -0.9419368618E-09
 111.8956528   -0.7510196909E-09
 112.0224457   -0.5294831795E-09
 112.1492386   -0.2800424614E-09
 112.2760315   -0.6236073723E-11
 112.4028244   0.2875980010E-09
 112.5296173   0.5963669003E-09
 112.6564102   0.9142870350E-09
 112.7832031   0.1234969127E-08
 112.9099960   0.1551522133E-08
 113.0367889   0.1856675480E-08