 -4.500000000   -0.1023056258E-17
 -4.373207569   -0.1023046538E-17
 -4.246414661   -0.1023027927E-17
 -4.119622231   -0.1023001974E-17
 -3.992829323   -0.1022972092E-17
 -3.866036654   -0.1022940453E-17
 -3.739243984   -0.1022910054E-17
 -3.612451553   -0.1022883791E-17
 -3.485658884   -0.1022862491E-17
 -3.358866215   -0.1022846981E-17
 -3.232073545   -0.1022837262E-17
 -3.105280876   -0.1022833126E-17
 -2.978488207   -0.1022832195E-17
 -2.851695538   -0.1022832092E-17
 -2.724902868   -0.1022829507E-17
 -2.598110199   -0.1022823303E-17
 -2.471317530   -0.1022810275E-17
 -2.344524860   -0.1022790216E-17
 -2.217732191   -0.1022762092E-17
 -2.090939522   -0.1022726937E-17
 -1.964146972   -0.1022685991E-17
 -1.837354302   -0.1022640806E-17
 -1.710561633   -0.1022593864E-17
 -1.583768964   -0.1022547542E-17
 -1.456976295   -0.1022504115E-17
 -1.330183744   -0.1022466478E-17
 -1.203391075   -0.1022435666E-17
 -1.076598406   -0.1022411988E-17
 -0.9498057365   -0.1022394824E-17
 -0.8230130672   -0.1022383140E-17
 -0.6962204576   -0.1022375281E-17
 -0.5694277883   -0.1022368767E-17
 -0.4426351190   -0.1022361633E-17
 -0.3158424795   -0.1022351190E-17
 -0.1890498251   -0.1022334853E-17
 -0.6225717068E-01   -0.1022312209E-17
 0.6453548372E-01   -0.1022281603E-17
 0.1913281381   -0.1022243553E-17
 0.3181207776   -0.1022198058E-17
 0.4449134469   -0.1022147497E-17
 0.5717061162   -0.1022093730E-17
 0.6984987259   -0.1022039343E-17
 0.8252913952   -0.1021987230E-17
 0.9520840645   -0.1021939461E-17
 1.078876734   -0.1021897791E-17
 1.205669403   -0.1021864497E-17
 1.332461953   -0.1021838855E-17
 1.459254622   -0.1021820657E-17
 1.586047292   -0.1021806905E-17
 1.712839961   -0.1021796358E-17
 1.839632630   -0.1021785398E-17
 1.966425300   -0.1021771440E-17
 2.093217850   -0.1021751484E-17
 2.220010519   -0.1021723256E-17
 2.346803188   -0.1021685723E-17
 2.473595858   -0.1021639194E-17
 2.600388527   -0.1021585634E-17
 2.727181196   -0.1021526697E-17
 2.853973866   -0.1021466934E-17
 2.980766535   -0.1021408721E-17
 3.107559204   -0.1021356608E-17
 3.234351873   -0.1021313181E-17
 3.361144543   -0.1021279370E-17
 3.487936974   -0.1021256623E-17
 3.614729643   -0.1021242561E-17
 3.741522312   -0.1021234599E-17
 3.868314981   -0.1021229326E-17
 3.995107651   -0.1021221881E-17
 4.121900558   -0.1021208647E-17
 4.248692989   -0.1021185589E-17
 4.375485420   -0.1021150847E-17
 4.502278328   -0.1021103388E-17
 4.629070759   -0.1021044865E-17
 4.755863667   -0.1020978173E-17
 4.882656097   -0.1020906519E-17
 5.009449005   -0.1020834554E-17
 5.136241436   -0.1020766622E-17
 5.263034344   -0.1020706238E-17
 5.389826775   -0.1020655780E-17
 5.516619682   -0.1020616799E-17
 5.643412113   -0.1020587330E-17
 5.770205021   -0.1020565617E-17
 5.896997452   -0.1020549694E-17
 6.023790359   -0.1020534391E-17
 6.150582790   -0.1020517434E-17
 6.277375221   -0.1020495100E-17
 6.404168129   -0.1020464391E-17
 6.530960560   -0.1020424376E-17
 6.657753468   -0.1020375365E-17
 6.784545898   -0.1020319634E-17
 6.911338806   -0.1020258009E-17
 7.038131237   -0.1020194213E-17
 7.164924145   -0.1020130210E-17
 7.291716576   -0.1020069929E-17
 7.418509483   -0.1020015749E-17
 7.545301914   -0.1019969530E-17
 7.672094822   -0.1019931893E-17
 7.798887253   -0.1019902735E-17
 7.925679684   -0.1019882056E-17
 8.052472115   -0.1019867063E-17
 8.179265022   -0.1019855689E-17
 8.306057930   -0.1019844626E-17
 8.432850838   -0.1019831598E-17
 8.559642792   -0.1019812986E-17
 8.686435699   -0.1019786620E-17
 8.813228607   -0.1019752085E-17
 8.940021515   -0.1019708658E-17
 9.066813469   -0.1019657373E-17
 9.193606377   -0.1019601331E-17
 9.320399284   -0.1019542291E-17
 9.447192192   -0.1019484492E-17
 9.573984146   -0.1019431863E-17
 9.700777054   -0.1019386781E-17
 9.827569962   -0.1019351626E-17
 9.954361916   -0.1019327638E-17
 10.08115482   -0.1019315127E-17
 10.20794773   -0.1019311094E-17
 10.33474064   -0.1019313576E-17
 10.46153259   -0.1019318849E-17
 10.58832550   -0.1019322778E-17
 10.71511841   -0.1019320090E-17
 10.84191132   -0.1019308406E-17
 10.96870327   -0.1019285762E-17
 11.09549618   -0.1019251020E-17
 11.22228909   -0.1019204905E-17
 11.34908199   -0.1019150518E-17
 11.47587395   -0.1019091478E-17
 11.60266685   -0.1019031611E-17
 11.72945976   -0.1018974845E-17
 11.85625172   -0.1018925111E-17
 11.98304462   -0.1018884166E-17
 12.10983753   -0.1018853974E-17
 12.23663044   -0.1018833708E-17
 12.36342239   -0.1018822541E-17
 12.49021530   -0.1018817267E-17
 12.61700821   -0.1018815199E-17
 12.74380112   -0.1018812408E-17
 12.87059307   -0.1018805480E-17
 12.99738598   -0.1018791625E-17
 13.12417889   -0.1018767843E-17
 13.25097084   -0.1018733929E-17
 13.37776375   -0.1018690399E-17
 13.50455666   -0.1018638907E-17
 13.63134956   -0.1018580797E-17
 13.75814152   -0.1018519793E-17
 13.88493443   -0.1018458995E-17
 14.01172733   -0.1018401713E-17
 14.13852024   -0.1018350324E-17
 14.26531219   -0.1018306794E-17
 14.39210510   -0.1018271018E-17
 14.51889801   -0.1018243721E-17
 14.64569092   -0.1018222628E-17
 14.77248287   -0.1018205981E-17
 14.89927578   -0.1018189954E-17
 15.02606869   -0.1018172377E-17
 15.15286064   -0.1018148699E-17
 15.27965355   -0.1018117162E-17
 15.40644646   -0.1018074563E-17
 15.53323936   -0.1018020382E-17
 15.66003132   -0.1017955242E-17
 15.78682423   -0.1017880899E-17
 15.91361713   -0.1017800145E-17
 16.04040909   -0.1017716807E-17
 16.16720200   -0.1017635433E-17
 16.29399490   -0.1017559953E-17
 16.42078781   -0.1017493675E-17
 16.54758072   -0.1017438564E-17
 16.67437363   -0.1017395241E-17
 16.80116463   -0.1017363601E-17
 16.92795753   -0.1017341060E-17
 17.05475044   -0.1017323793E-17
 17.18154335   -0.1017308180E-17
 17.30833626   -0.1017289155E-17
 17.43512917   -0.1017263305E-17
 17.56192207   -0.1017226082E-17
 17.68871498   -0.1017177072E-17
 17.81550598   -0.1017116067E-17
 17.94229889   -0.1017043999E-17
 18.06909180   -0.1016964486E-17
 18.19588470   -0.1016881561E-17
 18.32267761   -0.1016800601E-17
 18.44947052   -0.1016726775E-17
 18.57626343   -0.1016663289E-17
 18.70305443   -0.1016613348E-17
 18.82984734   -0.1016577572E-17
 18.95664024   -0.1016554618E-17
 19.08343315   -0.1016541590E-17
 19.21022606   -0.1016534559E-17
 19.33701897   -0.1016528872E-17
 19.46381187   -0.1016519153E-17
 19.59060478   -0.1016500851E-17
 19.71739578   -0.1016470246E-17
 19.84418869   -0.1016426612E-17
 19.97098160   -0.1016369020E-17
 20.09777451   -0.1016299433E-17
 20.22456741   -0.1016221161E-17
 20.35136032   -0.1016137926E-17
 20.47815323   -0.1016054484E-17
 20.60494423   -0.1015976109E-17
 20.73173714   -0.1015907763E-17
 20.85853004   -0.1015852032E-17
 20.98532295   -0.1015810879E-17
 21.11211586   -0.1015784720E-17
 21.23890877   -0.1015771692E-17
 21.36570168   -0.1015768693E-17
 21.49249458   -0.1015772105E-17
 21.61928558   -0.1015776758E-17
 21.74607849   -0.1015777689E-17
 21.87287140   -0.1015770968E-17
 21.99966431   -0.1015753597E-17
 22.12645721   -0.1015722991E-17
 22.25325012   -0.1015678737E-17
 22.38004303   -0.1015622489E-17
 22.50683403   -0.1015557038E-17
 22.63362694   -0.1015486728E-17
 22.76041985   -0.1015416624E-17
 22.88721275   -0.1015351381E-17
 23.01400566   -0.1015295960E-17
 23.14079857   -0.1015253567E-17
 23.26759148   -0.1015225959E-17
 23.39438438   -0.1015212724E-17
 23.52117538   -0.1015212931E-17
 23.64796829   -0.1015221410E-17
 23.77476120   -0.1015234231E-17
 23.90155411   -0.1015246329E-17
 24.02834702   -0.1015251705E-17
 24.15513992   -0.1015246329E-17
 24.28193283   -0.1015226683E-17
 24.40872383   -0.1015191011E-17
 24.53551674   -0.1015139312E-17
 24.66230965   -0.1015075102E-17
 24.78910255   -0.1015002414E-17
 24.91589546   -0.1014927554E-17
 25.04268837   -0.1014856210E-17
 25.16948128   -0.1014794171E-17
 25.29627419   -0.1014746298E-17
 25.42306519   -0.1014716519E-17
 25.54985809   -0.1014705663E-17
 25.67665100   -0.1014711867E-17
 25.80344391   -0.1014733373E-17
 25.93023682   -0.1014764599E-17
 26.05702972   -0.1014798721E-17
 26.18382263   -0.1014829119E-17
 26.31061363   -0.1014849592E-17
 26.43740654   -0.1014854555E-17
 26.56419945   -0.1014841734E-17
 26.69099236   -0.1014810404E-17
 26.81778526   -0.1014762635E-17
 26.94457817   -0.1014701630E-17
 27.07137108   -0.1014634835E-17
 27.19816399   -0.1014567524E-17
 27.32495499   -0.1014506829E-17
 27.45174789   -0.1014458853E-17
 27.57854080   -0.1014426489E-17
 27.70533371   -0.1014412427E-17
 27.83212662   -0.1014416460E-17
 27.95891953   -0.1014435692E-17
 28.08571243   -0.1014464436E-17
 28.21250343   -0.1014495869E-17
 28.33929634   -0.1014524200E-17
 28.46608925   -0.1014542295E-17
 28.59288216   -0.1014544259E-17
 28.71967506   -0.1014527922E-17
 28.84646797   -0.1014491733E-17
 28.97326088   -0.1014437449E-17
 29.10005379   -0.1014369104E-17
 29.22684479   -0.1014292693E-17
 29.35363770   -0.1014215248E-17
 29.48043060   -0.1014144007E-17
 29.60722351   -0.1014085174E-17
 29.73401642   -0.1014043505E-17
 29.86080933   -0.1014021378E-17
 29.98760223   -0.1014019516E-17
 30.11439323   -0.1014034819E-17
 30.24118614   -0.1014062737E-17
 30.36797905   -0.1014096444E-17
 30.49477196   -0.1014128704E-17
 30.62156487   -0.1014152486E-17
 30.74835777   -0.1014160758E-17
 30.87515068   -0.1014149901E-17
 31.00194168   -0.1014117744E-17
 31.12873459   -0.1014064494E-17
 31.25552750   -0.1013993564E-17
 31.38232040   -0.1013910639E-17
 31.50911331   -0.1013823061E-17
 31.63590622   -0.1013739619E-17
 31.76269913   -0.1013667137E-17
 31.88949203   -0.1013611923E-17
 32.01628494   -0.1013577595E-17
 32.14307785   -0.1013565291E-17
 32.26987076   -0.1013572529E-17
 32.39666367   -0.1013594656E-17
 32.52345276   -0.1013624744E-17
 32.65024567   -0.1013654420E-17
 32.77703857   -0.1013674996E-17
 32.90383148   -0.1013679442E-17
 33.03062439   -0.1013662278E-17
 33.15741730   -0.1013620919E-17
 33.28421021   -0.1013555468E-17
 33.41100311   -0.1013469131E-17
 33.53779602   -0.1013368525E-17
 33.66458893   -0.1013262543E-17
 33.79138184   -0.1013159455E-17
 33.91817474   -0.1013067432E-17
 34.04496765   -0.1012992778E-17
 34.17176056   -0.1012940253E-17
 34.29855347   -0.1012911094E-17
 34.42534256   -0.1012903133E-17
 34.55213547   -0.1012912335E-17
 34.67892838   -0.1012932498E-17
 34.80572128   -0.1012955866E-17
 34.93251419   -0.1012975201E-17
 35.05930710   -0.1012983163E-17
 35.18610001   -0.1012975201E-17
 35.31289291   -0.1012946767E-17
 35.43968582   -0.1012898170E-17
 35.56647873   -0.1012830548E-17
 35.69327164   -0.1012747726E-17
 35.82006454   -0.1012655392E-17
 35.94685745   -0.1012560060E-17
 36.07365036   -0.1012468656E-17
 36.20044327   -0.1012386765E-17
 36.32723236   -0.1012319764E-17
 36.45402527   -0.1012269926E-17
 36.58081818   -0.1012237976E-17
 36.70761108   -0.1012222777E-17
 36.83440399   -0.1012220399E-17
 36.96119690   -0.1012225672E-17
 37.08798981   -0.1012231979E-17
 37.21478271   -0.1012233427E-17
 37.34157562   -0.1012223707E-17
 37.46836853   -0.1012199616E-17
 37.59516144   -0.1012157740E-17
 37.72195435   -0.1012099217E-17
 37.84874725   -0.1012025701E-17
 37.97554016   -0.1011942052E-17
 38.10232925   -0.1011854371E-17
 38.22912216   -0.1011769275E-17
 38.35591507   -0.1011694105E-17
 38.48270798   -0.1011635479E-17
 38.60950089   -0.1011595774E-17
 38.73629379   -0.1011577266E-17
 38.86308670   -0.1011578506E-17
 38.98987961   -0.1011594947E-17
 39.11667252   -0.1011620072E-17
 39.24346542   -0.1011646025E-17
 39.37025833   -0.1011665567E-17
 39.49705124   -0.1011671047E-17
 39.62384415   -0.1011657709E-17
 39.75063705   -0.1011624208E-17
 39.87742996   -0.1011570752E-17
 40.00421906   -0.1011502302E-17
 40.13101196   -0.1011426098E-17
 40.25780487   -0.1011352169E-17
 40.38459778   -0.1011292405E-17
 40.51139069   -0.1011258284E-17
 40.63818359   -0.1011261179E-17
 40.76497650   -0.1011309466E-17
 40.89176941   -0.1011409038E-17
 41.01856232   -0.1011562170E-17
 41.14535522   -0.1011766587E-17
 41.27214813   -0.1012016188E-17
 41.39894104   -0.1012301772E-17
 41.52573395   -0.1012609897E-17
 41.65252686   -0.1012926707E-17
 41.77931976   -0.1013236176E-17
 41.90610886   -0.1013521657E-17
 42.03290176   -0.1013767537E-17
 42.15969467   -0.1013959959E-17
 42.28648758   -0.1014086001E-17
 42.41328049   -0.1014136459E-17
 42.54007339   -0.1014104302E-17
 42.66686630   -0.1013984568E-17
 42.79365921   -0.1013776842E-17
 42.92045212   -0.1013482056E-17
 43.04724503   -0.1013105275E-17
 43.17403793   -0.1012655185E-17
 43.30083084   -0.1012143264E-17
 43.42762375   -0.1011583780E-17
 43.55441666   -0.1010996378E-17
 43.68120956   -0.1010402152E-17
 43.80799866   -0.1009827572E-17
 43.93479156   -0.1009302622E-17
 44.06158447   -0.1008860184E-17
 44.18837738   -0.1008536550E-17
 44.31517029   -0.1008368012E-17
 44.44196320   -0.1008391793E-17
 44.56875610   -0.1008641912E-17
 44.69554901   -0.1009146699E-17
 44.82234192   -0.1009925696E-17
 44.94913483   -0.1010988313E-17
 45.07592773   -0.1012329069E-17
 45.20272064   -0.1013925528E-17
 45.32951355   -0.1015740259E-17
 45.45630646   -0.1017717841E-17
 45.58309937   -0.1019785896E-17
 45.70988846   -0.1021860258E-17
 45.83668137   -0.1023847353E-17
 45.96347427   -0.1025648745E-17
 46.09026718   -0.1027167862E-17
 46.21706009   -0.1028314955E-17
 46.34385300   -0.1029012682E-17
 46.47064590   -0.1029202003E-17
 46.59743881   -0.1028844351E-17
 46.72423172   -0.1027925146E-17
 46.85102463   -0.1026453902E-17
 46.97781754   -0.1024462775E-17
 47.10461044   -0.1022003360E-17
 47.23140335   -0.1019143590E-17
 47.35819626   -0.1015961840E-17
 47.48498917   -0.1012541138E-17
 47.61177826   -0.1008962031E-17
 47.73857117   -0.1005297621E-17
 47.86536407   -0.1001607671E-17
 47.99215698   -0.9979348860E-18
 48.11894989   -0.9943032529E-18
 48.24574280   -0.9907189759E-18
 48.37253571   -0.9871737832E-18
 48.49932861   -0.9836505108E-18
 48.62612152   -0.9801350966E-18
 48.75291443   -0.9766270236E-18
 48.87970734   -0.9731562772E-18
 49.00650024   -0.9698001986E-18
 49.13329315   -0.9666986849E-18
 49.26008606   -0.9640746612E-18
 49.38687897   -0.9622432834E-18
 49.51366806   -0.9616245523E-18
 49.64046097   -0.9627452786E-18
 49.76725388   -0.9662314313E-18
 49.89404678   -0.9727916973E-18
 50.02083969   -0.9831882202E-18
 50.14763260   -0.9981926562E-18
 50.27442551   -0.1018528581E-17
 50.40121841   -0.1044802940E-17
 50.52801132   -0.1077422807E-17
 50.65480423   -0.1116506574E-17
 50.78159714   -0.1161789336E-17
 50.90839005   -0.1212532213E-17
 51.03518295   -0.1267434982E-17
 51.16197586   -0.1324570312E-17
 51.28876877   -0.1381337443E-17
 51.41555786   -0.1434451951E-17
 51.54235077   -0.1479975215E-17
 51.66914368   -0.1513392692E-17
 51.79593658   -0.1529747190E-17
 51.92272949   -0.1523831607E-17
 52.04952240   -0.1490439360E-17
 52.17631531   -0.1424676330E-17
 52.30310822   -0.1322320691E-17
 52.42990112   -0.1180223780E-17
 52.55669403   -0.9967340266E-18
 52.68348694   -0.7721277103E-18
 52.81027985   -0.5090189799E-18
 52.93707275   -0.2127207519E-18
 53.06386566   0.1084735962E-18
 53.19065857   0.4431176556E-18
 53.31744766   0.7765847662E-18
 53.44424057   0.1091210253E-17
 53.57103348   0.1366634514E-17
 53.69782639   0.1580361131E-17
 53.82461929   0.1708541659E-17
 53.95141220   0.1726988613E-17
 54.07820511   0.1612399180E-17
 54.20499802   0.1343765452E-17
 54.33179092   0.9039295317E-18
 54.45858383   0.2812209614E-18
 54.58537674   -0.5288883752E-18
 54.71216965   -0.1522207852E-17
 54.83896255   -0.2684416155E-17
 54.96575546   -0.3989929673E-17
 55.09254837   -0.5401151497E-17
 55.21933746   -0.6868210907E-17
 55.34613037   -0.8329286906E-17
 55.47292328   -0.9711611589E-17
 55.59971619   -0.1093319523E-16
 55.72650909   -0.1190533676E-16
 55.85330200   -0.1253588992E-16
 55.98009491   -0.1273326763E-16
 56.10688782   -0.1241109567E-16
 56.23368073   -0.1149338014E-16
 56.36047363   -0.9920026362E-17
 56.48726654   -0.7652462087E-17
 56.61405945   -0.4679129528E-17
 56.74085236   -0.1020530152E-17
 56.86764526   0.3266500257E-17
 56.99443817   0.8085601979E-17
 57.12122726   0.1329914271E-16
 57.24802017   0.1872819790E-16
 57.37481308   0.2415453912E-16
 57.50160599   0.2932483650E-16
 57.62839890   0.3395722329E-16
 57.75519180   0.3775023683E-16
 57.88198471   0.4039405496E-16
 58.00877762   0.4158387155E-16
 58.13557053   0.4103505376E-16
 58.26236343   0.3849957975E-16
 58.38915634   0.3378324736E-16
 58.51594925   0.2676280502E-16
 58.64274216   0.1740233988E-16
 58.76953506   0.5767883676E-17
 58.89632797   -0.7960594309E-17
 59.02311707   -0.2348080878E-16
 59.14990997   -0.4036429300E-16
 59.27670288   -0.5805786167E-16
 59.40349579   -0.7589102864E-16
 59.53028870   -0.9308992014E-16
 59.65708160   -0.1087979278E-15
 59.78387451   -0.1221029493E-15
 59.91066742   -0.1320709918E-15
 60.03746033   -0.1377854069E-15
 60.16425323   -0.1383905590E-15
 60.29104614   -0.1331387430E-15
 60.41783905   -0.1214383725E-15
 60.54463196   -0.1029015726E-15
 60.67142487   -0.7738894023E-16
 60.79821777   -0.4504886166E-16
 60.92500687   -0.6349117022E-17
 61.05179977   0.3790173330E-16
 61.17859268   0.8654550536E-16
 61.30538559   0.1380800023E-15
 61.43217850   0.1906806292E-15
 61.55897141   0.2422392203E-15
 61.68576431   0.2904199367E-15
 61.81255722   0.3327328058E-15
 61.93935013   0.3666225676E-15
 62.06614304   0.3895718400E-15
 62.19293594   0.3992149131E-15
 62.31972885   0.3934589007E-15
 62.44652176   0.3706075664E-15
 62.57331467   0.3294823963E-15
 62.70010757   0.2695361541E-15
 62.82689667   0.1909517592E-15
 62.95368958   0.9472139162E-16
 63.08048248   -0.1730004245E-16
 63.20727539   -0.1423728977E-15
 63.33406830   -0.2768860707E-15
 63.46086121   -0.4164096025E-15
 63.58765411   -0.5557883446E-15
 63.71444702   -0.6892770313E-15
 63.84123993   -0.8107160391E-15
 63.96803284   -0.9137439916E-15
 64.09482574   -0.9920433996E-15
 64.22161865   -0.1039609488E-14
 64.34841156   -0.1051037550E-14
 64.47520447   -0.1021813008E-14
 64.60199738   -0.9485975975E-15
 64.72879028   -0.8294941242E-15
 64.85558319   -0.6642798714E-15
 64.98237610   -0.4545932125E-15
 65.10916901   -0.2040611425E-15
 65.23596191   0.8164273308E-16
 65.36275482   0.3948206385E-15
 65.48954773   0.7258601725E-15
 65.61633301   0.1063434301E-14
 65.74312592   0.1394794014E-14
 65.86991882   0.1706149031E-14
 65.99671173   0.1983128381E-14
 66.12350464   0.2211311858E-14
 66.25029755   0.2376814472E-14
 66.37709045   0.2466905320E-14
 66.50388336   0.2470636500E-14
 66.63067627   0.2379461239E-14
 66.75746918   0.2187807329E-14
 66.88426208   0.1893583023E-14
 67.01105499   0.1498586360E-14
 67.13784790   0.1008791782E-14
 67.26464081   0.4344896796E-15
 67.39143372   -0.2097369515E-15
 67.51822662   -0.9052174403E-15
 67.64501953   -0.1629581064E-14
 67.77181244   -0.2357333562E-14
 67.89860535   -0.3060611465E-14
 68.02539825   -0.3710098330E-14
 68.15219116   -0.4276081510E-14
 68.27898407   -0.4729611325E-14
 68.40577698   -0.5043733070E-14
 68.53256989   -0.5194734481E-14
 68.65936279   -0.5163368427E-14
 68.78615570   -0.4935990903E-14
 68.91294861   -0.4505565605E-14
 69.03974152   -0.3872476240E-14
 69.16653442   -0.3045101445E-14
 69.29332733   -0.2040108500E-14
 69.42011261   -0.8824302424E-15
 69.54690552   0.3951006358E-15
 69.67369843   0.1752467440E-14
 69.80049133   0.3143536626E-14
 69.92728424   0.4517457524E-14
 70.05407715   0.5820366992E-14
 70.18087006   0.6997334519E-14
 70.30766296   0.7994510408E-14
 70.43445587   0.8761380158E-14
 70.56124878   0.9253052290E-14
 70.68804169   0.9432474197E-14
 70.81483459   0.9272485767E-14
 70.94162750   0.8757617637E-14
 71.06842041   0.7885520138E-14
 71.19521332   0.6667956863E-14
 71.32200623   0.5131271808E-14
 71.44879913   0.3316284337E-14
 71.57559204   0.1277569312E-14
 71.70238495   -0.9178922296E-15
 71.82917786   -0.3192683807E-14
 71.95597076   -0.5461491838E-14
 72.08276367   -0.7634155488E-14
 72.20955658   -0.9619136542E-14
 72.33634949   -0.1132727928E-13
 72.46314240   -0.1267573709E-13
 72.58993530   -0.1359187184E-13
 72.71672821   -0.1401700868E-13
 72.84352112   -0.1390982090E-13
 72.97031403   -0.1324921228E-13
 73.09710693   -0.1203650843E-13
 73.22389221   -0.1029681880E-13
 73.35068512   -0.8079462731E-14
 73.47747803   -0.5457351117E-14
 73.60427094   -0.2525288337E-14
 73.73106384   0.6027999437E-15
 73.85785675   0.3797704830E-14
 73.98464966   0.6919700984E-14
 74.11144257   0.9824133762E-14
 74.23823547   0.1236763309E-13
 74.36502838   0.1441471860E-13
 74.49182129   0.1584452885E-13
 74.61861420   0.1655739348E-13
 74.74540710   0.1648094367E-13
 74.87220001   0.1557545020E-13
 74.99899292   0.1383808229E-13
 75.12578583   0.1130581716E-13
 75.25257874   0.8056778342E-14
 75.37937164   0.4209800335E-14
 75.50616455   -0.7791058018E-16
 75.63295746   -0.4615033179E-14
 75.75975037   -0.9182323345E-14
 75.88654327   -0.1354056620E-13
 76.01333618   -0.1744013225E-13
 76.14012909   -0.2063179814E-13
 76.26692200   -0.2287852254E-13
 76.39371490   -0.2396763750E-13
 76.52050781   -0.2372304827E-13
 76.64730072   -0.2201685117E-13
 76.77409363   -0.1877978431E-13
 76.90088654   -0.1401003506E-13
 77.02767181   -0.7779768922E-14
 77.15446472   -0.2389978370E-15
 77.28125763   0.8383700872E-14
 77.40805054   0.1778387008E-13
 77.53484344   0.2758743449E-13
 77.66163635   0.3736064463E-13
 77.78842926   0.4662353267E-13
 77.91522217   0.5486664386E-13
 78.04201508   0.6157058099E-13
 78.16880798   0.6622790017E-13
 78.29560089   0.6836643475E-13
 78.42239380   0.6757338151E-13
 78.54918671   0.6351910913E-13
 78.67597961   0.5597961466E-13
 78.80277252   0.4485677780E-13
 78.92956543   0.3019513215E-13
 79.05635834   0.1219431237E-13
 79.18315125   -0.8783766391E-14
 79.30994415   -0.3221369636E-13
 79.43673706   -0.5741194060E-13
 79.56352997   -0.8354916151E-13
 79.69032288   -0.1096694892E-12
 79.81711578   -0.1347166871E-12
 79.94390869   -0.1575666138E-12
 80.07070160   -0.1770653800E-12
 80.19749451   -0.1920720256E-12
 80.32428741   -0.2015043948E-12
 80.45108032   -0.2043868547E-12
 80.57787323   -0.1998980408E-12
 80.70465851   -0.1874165970E-12
 80.83145142   -0.1665632964E-12
 80.95824432   -0.1372373894E-12
 81.08503723   -0.9964547091E-13
 81.21183014   -0.5432107333E-13
 81.33862305   -0.2133541951E-14
 81.46541595   0.5571502867E-13
 81.59220886   0.1177052975E-12
 81.71900177   0.1820295081E-12
 81.84579468   0.2466331176E-12
 81.97258759   0.3092688594E-12
 82.09938049   0.3675620192E-12
 82.22617340   0.4190853122E-12
 82.35296631   0.4614416488E-12
 82.47975922   0.4923516564E-12
 82.60655212   0.5097436687E-12
 82.73334503   0.5118430636E-12
 82.86013794   0.4972567497E-12
 82.98693085   0.4650509578E-12
 83.11372375   0.4148178654E-12
 83.24051666   0.3467280445E-12
 83.36730957   0.2615668099E-12
 83.49410248   0.1607509156E-12
 83.62089539   0.4632474349E-13
 83.74768829   -0.7906576869E-13
 83.87448120   -0.2122215571E-12
 84.00127411   -0.3494611013E-12
 84.12806702   -0.4867119620E-12
 84.25485992   -0.6196214332E-12
 84.38165283   -0.7436832183E-12
 84.50843811   -0.8543772786E-12
 84.63523102   -0.9473174198E-12
 84.76202393   -0.1018404219E-11
 84.88881683   -0.1063974755E-11
 85.01560974   -0.1080948048E-11
 85.14240265   -0.1066957720E-11
 85.26919556   -0.1020467565E-11
 85.39598846   -0.9408658748E-12
 85.52278137   -0.8285341814E-12
 85.64957428   -0.6848859587E-12
 85.77636719   -0.5123729132E-12
 85.90316010   -0.3144585287E-12
 86.02995300   -0.9555587387E-13
 86.15674591   0.1390671026E-12
 86.28353882   0.3834148710E-12
 86.41033173   0.6309206087E-12
 86.53712463   0.8746263262E-12
 86.66391754   0.1107383499E-11
 86.79071045   0.1322067022E-11
 86.91750336   0.1511794921E-11
 87.04429626   0.1670148937E-11
 87.17108917   0.1791386050E-11
 87.29788208   0.1870635808E-11
 87.42467499   0.1904073253E-11
 87.55146790   0.1889065944E-11
 87.67826080   0.1824283346E-11
 87.80505371   0.1709768828E-11
 87.93184662   0.1546967849E-11
 88.05863953   0.1338713103E-11
 88.18543243   0.1089163698E-11
 88.31221771   0.8037012353E-12
 88.43901062   0.4887853360E-12
 88.56580353   0.1517725426E-12
 88.69259644   -0.1992950889E-12
 88.81938934   -0.5559248266E-12
 88.94618225   -0.9094230360E-12
 89.07297516   -0.1251152610E-11
 89.19976807   -0.1572786497E-11
 89.32656097   -0.1866550317E-11
 89.45335388   -0.2125444785E-11
 89.58014679   -0.2343437293E-11
 89.70693970   -0.2515619874E-11
 89.83373260   -0.2638324238E-11
 89.96052551   -0.2709190511E-11
 90.08731842   -0.2727187833E-11
 90.21411133   -0.2692586171E-11
 90.34090424   -0.2606879990E-11
 90.46769714   -0.2472669638E-11
 90.59449005   -0.2293502844E-11
 90.72128296   -0.2073686275E-11
 90.84807587   -0.1818076288E-11
 90.97486877   -0.1531855155E-11
 91.10166168   -0.1220308360E-11
 91.22845459   -0.8886108537E-12
 91.35524750   -0.5416347709E-12
 91.48204041   -0.1837877317E-12
 91.60883331   0.1811081396E-12
 91.73562622   0.5498888020E-12
 91.86241913   0.9200687087E-12
 91.98921204   0.1289805285E-11
 92.11599731   0.1657804644E-11
 92.24279022   0.2023176331E-11
 92.36958313   0.2385237841E-11
 92.49637604   0.2743278261E-11
 92.62316895   0.3096296006E-11
 92.74996185   0.3442718983E-11
 92.87675476   0.3780122049E-11
 93.00354767   0.4104966367E-11
 93.13034058   0.4412368040E-11
 93.25713348   0.4695919001E-11
 93.38392639   0.4947576637E-11
 93.51071930   0.5157630833E-11
 93.63751221   0.5314775963E-11
 93.76430511   0.5406275254E-11
 93.89109802   0.5418244846E-11
 94.01789093   0.5336040203E-11
 94.14468384   0.5144758751E-11
 94.27147675   0.4829830980E-11
 94.39826965   0.4377706964E-11
 94.52506256   0.3776597524E-11
 94.65185547   0.3017263956E-11
 94.77864838   0.2093819692E-11
 94.90544128   0.1004512120E-11
 95.03223419   -0.2475434408E-12
 95.15902710   -0.1653718829E-11
 95.28582001   -0.3199350507E-11
 95.41261292   -0.4863373159E-11
 95.53940582   -0.6618136594E-11
 95.66619873   -0.8429443775E-11
 95.79299164   -0.1025681623E-10
 95.91977692   -0.1205402184E-10
 96.04656982   -0.1376984811E-10
 96.17336273   -0.1534914383E-10
 96.30015564   -0.1673409848E-10
 96.42694855   -0.1786574187E-10
 96.55374146   -0.1868565892E-10
 96.68053436   -0.1913783715E-10
 96.80732727   -0.1917062863E-10
 96.93412018   -0.1873876748E-10
 97.06091309   -0.1780537003E-10
 97.18770599   -0.1634384988E-10
 97.31449890   -0.1433970824E-10
 97.44129181   -0.1179207339E-10
 97.56808472   -0.8714981861E-11
 97.69487762   -0.5138300809E-11
 97.82167053   -0.1108243922E-11
 97.94846344   0.3312559211E-11
 98.07525635   0.8045484418E-11
 98.20204926   0.1299684232E-10
 98.32884216   0.1805932140E-10
 98.45563507   0.2311394826E-10
 98.58242798   0.2803250687E-10
 98.70922089   0.3268043128E-10
 98.83601379   0.3692004341E-10
 98.96280670   0.4061413358E-10
 99.08959961   0.4362972483E-10
 99.21639252   0.4584197605E-10
 99.34318542   0.4713809898E-10
 99.46997833   0.4742115381E-10
 99.59677124   0.4661364350E-10
 99.72355652   0.4466074038E-10
 99.85034943   0.4153309641E-10
 99.97714233   0.3722907399E-10
 100.1039352   0.3177634544E-10
 100.2307281   0.2523275512E-10
 100.3575211   0.1768642177E-10
 100.4843140   0.9255014290E-11
 100.6111069   0.8420544942E-13
 100.7378998   -0.9654701517E-11
 100.8646927   -0.1976791994E-10
 100.9914856   -0.3004305138E-10
 101.1182785   -0.4025360253E-10
 101.2450714   -0.5016402571E-10
 101.3718643   -0.5953516846E-10
 101.4986572   -0.6813002246E-10
 101.6254501   -0.7571954869E-10
 101.7522430   -0.8208850960E-10
 101.8790359   -0.8704106186E-10
 102.0058289   -0.9040607152E-10
 102.1326218   -0.9204182555E-10
 102.2594147   -0.9184019517E-10
 102.3862076   -0.8972998733E-10
 102.5130005   -0.8567944965E-10
 102.6397934   -0.7969787330E-10
 102.7665863   -0.7183616202E-10
 102.8933792   -0.6218644349E-10
 103.0201721   -0.5088068161E-10
 103.1469650   -0.3808829294E-10
 103.2737579   -0.2401296349E-10
 103.4005508   -0.8888566098E-11
 103.5273361   0.7025506045E-11
 103.6541290   0.2344965194E-10
 103.7809219   0.4008968851E-10
 103.9077148   0.5664279462E-10
 104.0345078   0.7280348546E-10
 104.1613007   0.8826957221E-10
 104.2880936   0.1027478658E-09
 104.4148865   0.1159595267E-09
 104.5416794   0.1276449918E-09
 104.6684723   0.1375682068E-09
 104.7952652   0.1455203319E-09
 104.9220581   0.1513226766E-09
 105.0488510   0.1548289136E-09
 105.1756439   0.1559265911E-09
 105.3024368   0.1545379102E-09
 105.4292297   0.1506199332E-09
 105.5560226   0.1441641667E-09
 105.6828156   0.1351956741E-09
 105.8096085   0.1237719233E-09
 105.9364014   0.1099812047E-09
 106.0631943   0.9394103551E-10
 106.1899872   0.7579646633E-10
 106.3167801   0.5571839171E-10
 106.4435730   0.3390208947E-10
 106.5703659   0.1056583293E-10
 106.6971588   -0.1405021065E-10
 106.8239517   -0.3968490120E-10
 106.9507446   -0.6605686137E-10
 107.0775375   -0.9286499347E-10
 107.2043304   -0.1197889982E-09
 107.3311157   -0.1464899452E-09
 107.4579086   -0.1726108562E-09
 107.5847015   -0.1977777109E-09
 107.7114944   -0.2216008349E-09
 107.8382874   -0.2436768287E-09
 107.9650803   -0.2635912322E-09
 108.0918732   -0.2809219524E-09
 108.2186661   -0.2952438294E-09
 108.3454590   -0.3061339238E-09
 108.4722519   -0.3131779280E-09
 108.5990448   -0.3159778550E-09
 108.7258377   -0.3141603366E-09
 108.8526306   -0.3073859778E-09
 108.9794235   -0.2953595979E-09
 109.1062164   -0.2778406394E-09
 109.2330093   -0.2546541034E-09
 109.3598022   -0.2257016241E-09
 109.4865952   -0.1909717801E-09
 109.6133881   -0.1505502528E-09
 109.7401810   -0.1046285142E-09
 109.8669739   -0.5351143834E-10
 109.9937668   0.2377044308E-11
 110.1205597   0.6249028378E-10
 110.2473526   0.1261575983E-09
 110.3741455   0.1925858223E-09
 110.5009384   0.2608634975E-09
 110.6277313   0.3299681917E-09
 110.7545242   0.3987770114E-09
 110.8813171   0.4660798414E-09
 111.0081024   0.5305961226E-09
 111.1348953   0.5909938094E-09
 111.2616882   0.6459113799E-09