 -30.   2609031.75
 -29.8099995   2609584.
 -29.6200008   2610148.
 -29.4300003   2610721.25
 -29.2399998   2611291.5
 -29.0499992   2611853.75
 -28.8600006   2612404.
 -28.6700001   2612941.
 -28.4799995   2613471.5
 -28.2900009   2614005.
 -28.1000004   2614543.
 -27.9099998   2615093.5
 -27.7199993   2615655.
 -27.5300007   2616224.75
 -27.3400002   2616800.25
 -27.1499996   2617374.
 -26.9599991   2617938.75
 -26.7700005   2618494.25
 -26.5799999   2619038.25
 -26.3899994   2619572.75
 -26.2000008   2620101.75
 -26.0100002   2620634.25
 -25.8199997   2621174.25
 -25.6299992   2621723.25
 -25.4400005   2622282.5
 -25.25   2622848.5
 -25.0599995   2623419.
 -24.8700008   2623986.5
 -24.6800003   2624545.75
 -24.4899998   2625093.25
 -24.2999992   2625629.
 -24.1100006   2626155.25
 -23.9200001   2626680.25
 -23.7299995   2627210.75
 -23.5400009   2627747.25
 -23.3500004   2628295.5
 -23.1599998   2628854.25
 -22.9699993   2629415.75
 -22.7800007   2629977.5
 -22.5900002   2630531.
 -22.3999996   2631070.75
 -22.2099991   2631597.25
 -22.0200005   2632111.25
 -21.8299999   2632620.
 -21.6399994   2633128.75
 -21.4500008   2633642.25
 -21.2600002   2634169.25
 -21.0699997   2634707.25
 -20.8799992   2635253.
 -20.6900005   2635804.75
 -20.5   2636351.5
 -20.3099995   2636889.75
 -20.1200008   2637418.75
 -19.9300003   2637937.25
 -19.7399998   2638448.75
 -19.5499992   2638962.75
 -19.3600006   2639481.25
 -19.1700001   2640008.75
 -18.9799995   2640549.25
 -18.7900009   2641099.
 -18.6000004   2641657.25
 -18.4099998   2642217.5
 -18.2199993   2642773.25
 -18.0300007   2643319.75
 -17.8400002   2643856.25
 -17.6499996   2644381.5
 -17.4599991   2644899.75
 -17.2700005   2645416.25
 -17.0799999   2645938.25
 -16.8899994   2646470.
 -16.7000008   2647010.
 -16.5100002   2647560.75
 -16.3199997   2648114.5
 -16.1299992   2648670.25
 -15.9399996   2649218.75
 -15.75   2649760.5
 -15.5600004   2650291.
 -15.3699999   2650813.5
 -15.1800003   2651333.75
 -14.9899998   2651857.75
 -14.8000002   2652389.75
 -14.6099997   2652929.
 -14.4200001   2653475.
 -14.2299995   2654023.
 -14.04   2654568.
 -13.8500004   2655101.5
 -13.6599998   2655622.5
 -13.4700003   2656130.5
 -13.2799997   2656631.5
 -13.0900002   2657127.75
 -12.8999996   2657629.5
 -12.71   2658144.5
 -12.5200005   2658673.75
 -12.3299999   2659213.75
 -12.1400003   2659761.75
 -11.9499998   2660307.5
 -11.7600002   2660845.25
 -11.5699997   2661373.25
 -11.3800001   2661892.
 -11.1899996   2662404.
 -11.   2662914.75
 -10.8100004   2663431.5
 -10.6199999   2663956.5
 -10.4300003   2664492.5
 -10.2399998   2665032.5
 -10.0500002   2665578.
 -9.85999966   2666117.25
 -9.67000008   2666648.25
 -9.47999954   2667169.5
 -9.28999996   2667682.25
 -9.10000038   2668193.
 -8.90999985   2668705.
 -8.72000027   2669221.75
 -8.52999973   2669744.
 -8.34000015   2670276.75
 -8.14999962   2670816.
 -7.96000004   2671358.
 -7.76999998   2671899.5
 -7.57999992   2672436.5
 -7.38999987   2672964.5
 -7.19999981   2673487.5
 -7.01000023   2674008.75
 -6.82000017   2674529.25
 -6.63000011   2675054.25
 -6.44000006   2675580.75
 -6.25   2676111.25
 -6.05999994   2676644.25
 -5.86999989   2677180.
 -5.67999983   2677718.5
 -5.48999977   2678255.
 -5.30000019   2678789.
 -5.11000013   2679320.25
 -4.92000008   2679846.5
 -4.73000002   2680367.75
 -4.53999996   2680883.75
 -4.3499999   2681395.75
 -4.15999985   2681908.
 -3.97000003   2682419.5
 -3.77999997   2682933.
 -3.58999991   2683455.
 -3.4000001   2683979.5
 -3.21000004   2684508.
 -3.01999998   2685035.
 -2.82999992   2685559.
 -2.6400001   2686075.5
 -2.45000005   2686584.75
 -2.25999999   2687093.25
 -2.06999993   2687602.25
 -1.88   2688116.75
 -1.69000006   2688638.
 -1.5   2689165.5
 -1.30999994   2689696.5
 -1.12   2690228.75
 -0.930000007   2690758.75
 -0.74000001   2691283.75
 -0.550000012   2691802.
 -0.360000014   2692315.
 -0.170000002   2692825.75
 1.999999955E-2   2693336.5
 0.209999993   2693850.5
 0.400000006   2694369.5
 0.589999974   2694895.
 0.779999971   2695424.5
 0.970000029   2695958.
 1.15999997   2696494.25
 1.35000002   2697028.
 1.53999996   2697556.75
 1.73000002   2698077.25
 1.91999996   2698590.75
 2.1099999   2699097.25
 2.29999995   2699600.
 2.49000001   2700103.75
 2.68000007   2700614.25
 2.86999989   2701129.75
 3.05999994   2701651.75
 3.25   2702177.25
 3.44000006   2702703.
 3.63000011   2703227.25
 3.81999993   2703749.
 4.01000023   2704266.75
 4.19999981   2704780.
 4.38999987   2705292.75
 4.57999992   2705804.
 4.76999998   2706325.
 4.96000004   2706846.5
 5.1500001   2707372.75
 5.34000015   2707899.5
 5.53000021   2708424.
 5.71999979   2708946.
 5.90999985   2709470.25
 6.0999999   2709991.
 6.28999996   2710513.
 6.48000002   2711029.75
 6.67000008   2711543.75
 6.86000013   2712061.75
 7.05000019   2712579.
 7.23999977   2713099.75
 7.42999983   2713623.25
 7.61999989   2714149.25
 7.80999994   2714677.
 8.   2715204.5
 8.18999958   2715728.75
 8.38000011   2716253.
 8.56999969   2716772.5
 8.76000023   2717286.25
 8.94999981   2717797.75
 9.14000034   2718309.25
 9.32999992   2718823.
 9.52000046   2719346.5
 9.71000004   2719876.75
 9.89999962   2720413.
 10.0900002   2720953.
 10.2799997   2721492.25
 10.4700003   2722027.25
 10.6599998   2722557.25
 10.8500004   2723075.75
 11.04   2723585.
 11.2299995   2724091.75
 11.4200001   2724600.25
 11.6099997   2725114.25
 11.8000002   2725639.5
 11.9899998   2726172.75
 12.1800003   2726710.
 12.3699999   2727248.
 12.5600004   2727780.25
 12.75   2728305.
 12.9399996   2728819.25
 13.1300001   2729324.5
 13.3199997   2729827.75
 13.5100002   2730332.25
 13.6999998   2730842.
 13.8900003   2731363.25
 14.0799999   2731896.75
 14.2700005   2732436.75
 14.46   2732977.5
 14.6499996   2733507.
 14.8400002   2734022.5
 15.0299997   2734526.5
 15.2200003   2735019.75
 15.4099998   2735511.25
 15.6000004   2736005.
 15.79   2736508.25
 15.9799995   2737024.5
 16.1700001   2737555.5
 16.3600006   2738097.
 16.5499992   2738638.75
 16.7399998   2739175.
 16.9300003   2739696.25
 17.1200008   2740202.
 17.3099995   2740697.25
 17.5   2741188.25
 17.6900005   2741682.75
 17.8799992   2742189.25
 18.0699997   2742704.25
 18.2600002   2743229.
 18.4500008   2743761.
 18.6399994   2744294.
 18.8299999   2744821.25
 19.0200005   2745343.
 19.2099991   2745856.
 19.3999996   2746366.5
 19.5900002   2746874.25
 19.7800007   2747385.5
 19.9699993   2747901.75
 20.1599998   2748422.25
 20.3500004   2748946.
 20.5400009   2749471.
 20.7299995   2749994.5
 20.9200001   2750515.5
 21.1100006   2751033.
 21.2999992   2751545.75
 21.4899998   2752054.75
 21.6800003   2752555.25
 21.8700008   2753054.25
 22.0599995   2753550.75
 22.25   2754049.75
 22.4400005   2754549.5
 22.6299992   2755054.5
 22.8199997   2755562.25
 23.0100002   2756075.75
 23.2000008   2756589.75
 23.3899994   2757108.75
 23.5799999   2757628.5
 23.7700005   2758146.5
 23.9599991   2758661.25
 24.1499996   2759171.25
 24.3400002   2759678.25
 24.5300007   2760183.25
 24.7199993   2760689.
 24.9099998   2761202.75
 25.1000004   2761722.5
 25.2900009   2762245.75
 25.4799995   2762776.5
 25.6700001   2763304.5
 25.8600006   2763827.5
 26.0499992   2764343.25
 26.2399998   2764850.75
 26.4300003   2765348.25
 26.6200008   2765847.5
 26.8099995   2766353.
