 -30.   10104563.
 -29.8099995   10106648.
 -29.6200008   10108753.
 -29.4300003   10110866.
 -29.2399998   10112975.
 -29.0499992   10115073.
 -28.8600006   10117156.
 -28.6700001   10119225.
 -28.4799995   10121284.
 -28.2900009   10123342.
 -28.1000004   10125407.
 -27.9099998   10127486.
 -27.7199993   10129583.
 -27.5300007   10131687.
 -27.3400002   10133799.
 -27.1499996   10135905.
 -26.9599991   10138001.
 -26.7700005   10140079.
 -26.5799999   10142142.
 -26.3899994   10144194.
 -26.2000008   10146239.
 -26.0100002   10148287.
 -25.8199997   10150346.
 -25.6299992   10152417.
 -25.4400005   10154503.
 -25.25   10156596.
 -25.0599995   10158690.
 -24.8700008   10160777.
 -24.6800003   10162853.
 -24.4899998   10164918.
 -24.2999992   10166967.
 -24.1100006   10169007.
 -23.9200001   10171048.
 -23.7299995   10173090.
 -23.5400009   10175148.
 -23.3500004   10177215.
 -23.1599998   10179294.
 -22.9699993   10181382.
 -22.7800007   10183467.
 -22.5900002   10185547.
 -22.3999996   10187614.
 -22.2099991   10189666.
 -22.0200005   10191709.
 -21.8299999   10193748.
 -21.6399994   10195790.
 -21.4500008   10197842.
 -21.2600002   10199903.
 -21.0699997   10201982.
 -20.8799992   10204066.
 -20.6900005   10206152.
 -20.5   10208233.
 -20.3099995   10210300.
 -20.1200008   10212352.
 -19.9300003   10214393.
 -19.7399998   10216426.
 -19.5499992   10218457.
 -19.3600006   10220495.
 -19.1700001   10222546.
 -18.9799995   10224606.
 -18.7900009   10226675.
 -18.6000004   10228746.
 -18.4099998   10230813.
 -18.2199993   10232868.
 -18.0300007   10234911.
 -17.8400002   10236940.
 -17.6499996   10238963.
 -17.4599991   10240984.
 -17.2700005   10243011.
 -17.0799999   10245047.
 -16.8899994   10247094.
 -16.7000008   10249147.
 -16.5100002   10251206.
 -16.3199997   10253264.
 -16.1299992   10255316.
 -15.9399996   10257357.
 -15.75   10259385.
 -15.5600004   10261404.
 -15.3699999   10263413.
 -15.1800003   10265424.
 -14.9899998   10267436.
 -14.8000002   10269454.
 -14.6099997   10271480.
 -14.4200001   10273509.
 -14.2299995   10275541.
 -14.04   10277572.
 -13.8500004   10279596.
 -13.6599998   10281610.
 -13.4700003   10283615.
 -13.2799997   10285611.
 -13.0900002   10287606.
 -12.8999996   10289603.
 -12.71   10291605.
 -12.5200005   10293616.
 -12.3299999   10295634.
 -12.1400003   10297660.
 -11.9499998   10299688.
 -11.7600002   10301716.
 -11.5699997   10303740.
 -11.3800001   10305754.
 -11.1899996   10307763.
 -11.   10309761.
 -10.8100004   10311754.
 -10.6199999   10313751.
 -10.4300003   10315749.
 -10.2399998   10317756.
 -10.0500002   10319769.
 -9.85999966   10321786.
 -9.67000008   10323805.
 -9.47999954   10325820.
 -9.28999996   10327827.
 -9.10000038   10329822.
 -8.90999985   10331804.
 -8.72000027   10333776.
 -8.52999973   10335743.
 -8.34000015   10337712.
 -8.14999962   10339687.
 -7.96000004   10341674.
 -7.76999998   10343674.
 -7.57999992   10345681.
 -7.38999987   10347691.
 -7.19999981   10349699.
 -7.01000023   10351695.
 -6.82000017   10353680.
 -6.63000011   10355652.
 -6.44000006   10357616.
 -6.25   10359581.
 -6.05999994   10361554.
 -5.86999989   10363542.
 -5.67999983   10365548.
 -5.48999977   10367566.
 -5.30000019   10369585.
 -5.11000013   10371601.
 -4.92000008   10373601.
 -4.73000002   10375590.
 -4.53999996   10377560.
 -4.3499999   10379522.
 -4.15999985   10381479.
 -3.97000003   10383443.
 -3.77999997   10385417.
 -3.58999991   10387406.
 -3.4000001   10389405.
 -3.21000004   10391407.
 -3.01999998   10393406.
 -2.82999992   10395398.
 -2.6400001   10397376.
 -2.45000005   10399344.
 -2.25999999   10401304.
 -2.06999993   10403261.
 -1.88   10405217.
 -1.69000006   10407180.
 -1.5   10409156.
 -1.30999994   10411144.
 -1.12   10413142.
 -0.930000007   10415146.
 -0.74000001   10417145.
 -0.550000012   10419134.
 -0.360000014   10421111.
 -0.170000002   10423078.
 1.999999955E-2   10425037.
 0.209999993   10426995.
 0.400000006   10428958.
 0.589999974   10430932.
 0.779999971   10432913.
 0.970000029   10434907.
 1.15999997   10436903.
 1.35000002   10438899.
 1.53999996   10440885.
 1.73000002   10442853.
 1.91999996   10444810.
 2.1099999   10446755.
 2.29999995   10448697.
 2.49000001   10450642.
 2.68000007   10452594.
 2.86999989   10454555.
 3.05999994   10456525.
 3.25   10458501.
 3.44000006   10460482.
 3.63000011   10462460.
 3.81999993   10464427.
 4.01000023   10466381.
 4.19999981   10468322.
 4.38999987   10470258.
 4.57999992   10472190.
 4.76999998   10474130.
 4.96000004   10476081.
 5.1500001   10478045.
 5.34000015   10480025.
 5.53000021   10482009.
 5.71999979   10483997.
 5.90999985   10485977.
 6.0999999   10487942.
 6.28999996   10489892.
 6.48000002   10491830.
 6.67000008   10493759.
 6.86000013   10495690.
 7.05000019   10497628.
 7.23999977   10499580.
 7.42999983   10501544.
 7.61999989   10503518.
 7.80999994   10505495.
 8.   10507469.
 8.18999958   10509435.
 8.38000011   10511383.
 8.56999969   10513313.
 8.76000023   10515231.
 8.94999981   10517141.
 9.14000034   10519054.
 9.32999992   10520982.
 9.52000046   10522925.
 9.71000004   10524884.
 9.89999962   10526856.
 10.0900002   10528830.
 10.2799997   10530800.
 10.4700003   10532756.
 10.6599998   10534699.
 10.8500004   10536628.
 11.04   10538549.
 11.2299995   10540472.
 11.4200001   10542406.
 11.6099997   10544351.
 11.8000002   10546311.
 11.9899998   10548281.
 12.1800003   10550253.
 12.3699999   10552219.
 12.5600004   10554172.
 12.75   10556110.
 12.9399996   10558033.
 13.1300001   10559942.
 13.3199997   10561842.
 13.5100002   10563744.
 13.6999998   10565650.
 13.8900003   10567569.
 14.0799999   10569500.
 14.2700005   10571440.
 14.46   10573386.
 14.6499996   10575328.
 14.8400002   10577262.
 15.0299997   10579176.
 15.2200003   10581079.
 15.4099998   10582964.
 15.6000004   10584848.
 15.79   10586738.
 15.9799995   10588639.
 16.1700001   10590561.
 16.3600006   10592500.
 16.5499992   10594451.
 16.7399998   10596405.
 16.9300003   10598348.
 17.1200008   10600274.
 17.3099995   10602183.
 17.5   10604082.
 17.6900005   10605976.
 17.8799992   10607877.
 18.0699997   10609791.
 18.2600002   10611720.
 18.4500008   10613664.
 18.6399994   10615613.
 18.8299999   10617558.
 19.0200005   10619491.
 19.2099991   10621403.
 19.3999996   10623296.
 19.5900002   10625176.
 19.7800007   10627050.
 19.9699993   10628925.
 20.1599998   10630812.
 20.3500004   10632714.
 20.5400009   10634629.
 20.7299995   10636551.
 20.9200001   10638478.
 21.1100006   10640400.
 21.2999992   10642311.
 21.4899998   10644206.
 21.6800003   10646087.
 21.8700008   10647957.
 22.0599995   10649822.
 22.25   10651693.
 22.4400005   10653576.
 22.6299992   10655478.
 22.8199997   10657395.
 23.0100002   10659319.
 23.2000008   10661242.
 23.3899994   10663155.
 23.5799999   10665048.
 23.7700005   10666919.
 23.9599991   10668775.
 24.1499996   10670625.
 24.3400002   10672480.
 24.5300007   10674349.
 24.7199993   10676241.
 24.9099998   10678148.
 25.1000004   10680065.
 25.2900009   10681977.
 25.4799995   10683875.
 25.6700001   10685757.
 25.8600006   10687621.
 26.0499992   10689472.
 26.2399998   10691316.
 26.4300003   10693166.
 26.6200008   10695027.
 26.8099995   10696904.
