 -30.   -3592971.75
 -29.8099995   -3593627.5
 -29.6200008   -3594265.5
 -29.4300003   -3594945.75
 -29.2399998   -3595682.
 -29.0499992   -3596420.5
 -28.8600006   -3597105.75
 -28.6700001   -3597730.
 -28.4799995   -3598345.25
 -28.2900009   -3599018.
 -28.1000004   -3599755.5
 -27.9099998   -3600509.
 -27.7199993   -3601214.5
 -27.5300007   -3601857.25
 -27.3400002   -3602479.75
 -27.1499996   -3603145.
 -26.9599991   -3603877.25
 -26.7700005   -3604633.25
 -26.5799999   -3605351.75
 -26.3899994   -3606002.5
 -26.2000008   -3606624.25
 -26.0100002   -3607281.5
 -25.8199997   -3608004.5
 -25.6299992   -3608763.25
 -25.4400005   -3609494.
 -25.25   -3610161.5
 -25.0599995   -3610795.
 -24.8700008   -3611456.75
 -24.6800003   -3612186.
 -24.4899998   -3612959.5
 -24.2999992   -3613709.5
 -24.1100006   -3614398.
 -23.9200001   -3615043.75
 -23.7299995   -3615706.25
 -23.5400009   -3616432.5
 -23.3500004   -3617207.75
 -23.1599998   -3617971.75
 -22.9699993   -3618671.5
 -22.7800007   -3619322.
 -22.5900002   -3619982.5
 -22.3999996   -3620699.
 -22.2099991   -3621469.5
 -22.0200005   -3622237.25
 -21.8299999   -3622949.75
 -21.6399994   -3623611.25
 -21.4500008   -3624275.75
 -21.2600002   -3624997.25
 -21.0699997   -3625776.75
 -20.8799992   -3626563.75
 -20.6900005   -3627296.5
 -20.5   -3627967.25
 -20.3099995   -3628625.25
 -20.1200008   -3629326.75
 -19.9300003   -3630083.5
 -19.7399998   -3630855.5
 -19.5499992   -3631582.25
 -19.3600006   -3632252.25
 -19.1700001   -3632907.
 -18.9799995   -3633605.5
 -18.7900009   -3634368.5
 -18.6000004   -3635155.25
 -18.4099998   -3635911.5
 -18.2199993   -3636607.75
 -18.0300007   -3637280.75
 -17.8400002   -3637984.5
 -17.6499996   -3638747.75
 -17.4599991   -3639536.5
 -17.2700005   -3640289.75
 -17.0799999   -3640984.25
 -16.8899994   -3641642.75
 -16.7000008   -3642324.
 -16.5100002   -3643061.25
 -16.3199997   -3643831.25
 -16.1299992   -3644584.75
 -15.9399996   -3645284.5
 -15.75   -3645952.5
 -15.5600004   -3646636.75
 -15.3699999   -3647375.5
 -15.1800003   -3648152.75
 -14.9899998   -3648918.75
 -14.8000002   -3649631.75
 -14.6099997   -3650303.25
 -14.4200001   -3650977.75
 -14.2299995   -3651699.5
 -14.04   -3652463.5
 -13.8500004   -3653227.5
 -13.6599998   -3653942.25
 -13.4700003   -3654610.5
 -13.2799997   -3655269.75
 -13.0900002   -3655970.75
 -12.8999996   -3656719.25
 -12.71   -3657475.
 -12.5200005   -3658191.5
 -12.3299999   -3658858.
 -12.1400003   -3659511.5
 -11.9499998   -3660204.5
 -11.7600002   -3660950.5
 -11.5699997   -3661716.75
 -11.3800001   -3662449.5
 -11.1899996   -3663129.
 -11.   -3663785.25
 -10.8100004   -3664471.
 -10.6199999   -3665210.75
 -10.4300003   -3665974.5
 -10.2399998   -3666716.
 -10.0500002   -3667403.75
 -9.85999966   -3668062.25
 -9.67000008   -3668741.5
 -9.47999954   -3669479.75
 -9.28999996   -3670254.75
 -9.10000038   -3671022.75
 -8.90999985   -3671741.25
 -8.72000027   -3672423.25
 -8.52999973   -3673116.25
 -8.34000015   -3673859.25
 -8.14999962   -3674646.5
 -7.96000004   -3675421.5
 -7.76999998   -3676141.25
 -7.57999992   -3676813.
 -7.38999987   -3677479.
 -7.19999981   -3678193.75
 -7.01000023   -3678957.
 -6.82000017   -3679727.5
 -6.63000011   -3680454.75
 -6.44000006   -3681133.
 -6.25   -3681809.5
 -6.05999994   -3682533.
 -5.86999989   -3683314.
 -5.67999983   -3684110.
 -5.48999977   -3684864.5
 -5.30000019   -3685564.75
 -5.11000013   -3686244.5
 -4.92000008   -3686962.75
 -4.73000002   -3687734.25
 -4.53999996   -3688522.75
 -4.3499999   -3689275.25
 -4.15999985   -3689967.25
 -3.97000003   -3690630.5
 -3.77999997   -3691321.25
 -3.58999991   -3692069.5
 -3.4000001   -3692841.
 -3.21000004   -3693587.
 -3.01999998   -3694272.75
 -2.82999992   -3694927.25
 -2.6400001   -3695608.25
 -2.45000005   -3696350.75
 -2.25999999   -3697136.
 -2.06999993   -3697908.75
 -1.88   -3698630.5
 -1.69000006   -3699316.5
 -1.5   -3700015.5
 -1.30999994   -3700772.25
 -1.12   -3701569.5
 -0.930000007   -3702356.5
 -0.74000001   -3703092.25
 -0.550000012   -3703782.5
 -0.360000014   -3704482.
 -0.170000002   -3705233.5
 1.999999955E-2   -3706033.
 0.209999993   -3706828.75
 0.400000006   -3707577.75
 0.589999974   -3708281.
 0.779999971   -3708984.75
 0.970000029   -3709737.25
 1.15999997   -3710538.5
 1.35000002   -3711346.25
 1.53999996   -3712105.25
 1.73000002   -3712809.5
 1.91999996   -3713496.75
 2.1099999   -3714219.
 2.29999995   -3714988.25
 2.49000001   -3715768.
 2.68000007   -3716503.
 2.86999989   -3717181.
 3.05999994   -3717842.75
 3.25   -3718539.
 3.44000006   -3719293.5
 3.63000011   -3720073.75
 3.81999993   -3720830.75
 4.01000023   -3721537.
 4.19999981   -3722222.5
 4.38999987   -3722934.75
 4.57999992   -3723701.5
 4.76999998   -3724494.
 4.96000004   -3725262.5
 5.1500001   -3725973.75
 5.34000015   -3726655.
 5.53000021   -3727353.5
 5.71999979   -3728103.5
 5.90999985   -3728888.5
 6.0999999   -3729660.5
 6.28999996   -3730383.5
 6.48000002   -3731069.25
 6.67000008   -3731763.75
 6.86000013   -3732508.75
 7.05000019   -3733296.75
 7.23999977   -3734081.
 7.42999983   -3734823.75
 7.61999989   -3735524.75
 7.80999994   -3736227.25
 8.   -3736974.25
 8.18999958   -3737764.75
 8.38000011   -3738560.
 8.56999969   -3739313.
 8.76000023   -3740013.25
 8.94999981   -3740704.
 9.14000034   -3741429.75
 9.32999992   -3742199.
 9.52000046   -3742975.25
 9.71000004   -3743713.
 9.89999962   -3744402.
 10.0900002   -3745076.
 10.2799997   -3745786.5
 10.4700003   -3746547.5
 10.6599998   -3747334.
 10.8500004   -3748095.
 11.04   -3748812.75
 11.2299995   -3749507.25
 11.4200001   -3750226.5
 11.6099997   -3750991.5
 11.8000002   -3751777.25
 11.9899998   -3752540.5
 12.1800003   -3753260.25
 12.3699999   -3753948.25
 12.5600004   -3754649.75
 12.75   -3755398.
 12.9399996   -3756177.75
 13.1300001   -3756949.25
 13.3199997   -3757675.
 13.5100002   -3758367.
 13.6999998   -3759069.75
 13.8900003   -3759819.
 14.0799999   -3760609.
 14.2700005   -3761392.25
 14.46   -3762132.75
 14.6499996   -3762829.
 14.8400002   -3763527.5
 15.0299997   -3764265.75
 15.2200003   -3765047.75
 15.4099998   -3765827.
 15.6000004   -3766567.
 15.79   -3767265.75
 15.9799995   -3767961.
 16.1700001   -3768696.
 16.3600006   -3769479.75
 16.5499992   -3770278.
 16.7399998   -3771042.
 16.9300003   -3771764.25
 17.1200008   -3772474.
 17.3099995   -3773213.
 17.5   -3773996.25
 17.6900005   -3774794.25
 17.8799992   -3775556.25
 18.0699997   -3776268.
 18.2600002   -3776958.75
 18.4500008   -3777673.25
 18.6399994   -3778436.75
 18.8299999   -3779221.5
 19.0200005   -3779987.75
 19.2099991   -3780711.75
 19.3999996   -3781410.75
 19.5900002   -3782134.25
 19.7800007   -3782905.5
 19.9699993   -3783709.25
 20.1599998   -3784503.75
 20.3500004   -3785255.75
 20.5400009   -3785974.
 20.7299995   -3786703.25
 20.9200001   -3787473.25
 21.1100006   -3788275.75
 21.2999992   -3789071.
 21.4899998   -3789819.25
 21.6800003   -3790528.25
 21.8700008   -3791235.5
 22.0599995   -3791982.
 22.25   -3792768.75
 22.4400005   -3793556.75
 22.6299992   -3794304.
 22.8199997   -3795010.
 23.0100002   -3795707.
 23.2000008   -3796449.25
 23.3899994   -3797241.5
 23.5799999   -3798046.5
 23.7700005   -3798819.25
 23.9599991   -3799546.75
 24.1499996   -3800259.5
 24.3400002   -3801003.5
 24.5300007   -3801792.5
 24.7199993   -3802601.
 24.9099998   -3803379.5
 25.1000004   -3804111.
 25.2900009   -3804825.25
 25.4799995   -3805569.25
 25.6700001   -3806364.
 25.8600006   -3807185.75
 26.0499992   -3807983.5
 26.2399998   -3808732.5
 26.4300003   -3809456.25
 26.6200008   -3810196.
 26.8099995   -3810982.
