 -30.   10088756.
 -29.8099995   10090829.
 -29.6200008   10092906.
 -29.4300003   10094975.
 -29.2399998   10097033.
 -29.0499992   10099092.
 -28.8600006   10101163.
 -28.6700001   10103244.
 -28.4799995   10105329.
 -28.2900009   10107401.
 -28.1000004   10109465.
 -27.9099998   10111523.
 -27.7199993   10113585.
 -27.5300007   10115656.
 -27.3400002   10117727.
 -27.1499996   10119790.
 -26.9599991   10121842.
 -26.7700005   10123896.
 -26.5799999   10125964.
 -26.3899994   10128053.
 -26.2000008   10130152.
 -26.0100002   10132245.
 -25.8199997   10134319.
 -25.6299992   10136381.
 -25.4400005   10138440.
 -25.25   10140509.
 -25.0599995   10142581.
 -24.8700008   10144652.
 -24.6800003   10146715.
 -24.4899998   10148779.
 -24.2999992   10150850.
 -24.1100006   10152934.
 -23.9200001   10155024.
 -23.7299995   10157105.
 -23.5400009   10159171.
 -23.3500004   10161224.
 -23.1599998   10163277.
 -22.9699993   10165339.
 -22.7800007   10167414.
 -22.5900002   10169492.
 -22.3999996   10171564.
 -22.2099991   10173626.
 -22.0200005   10175686.
 -21.8299999   10177753.
 -21.6399994   10179830.
 -21.4500008   10181906.
 -21.2600002   10183971.
 -21.0699997   10186025.
 -20.8799992   10188076.
 -20.6900005   10190135.
 -20.5   10192207.
 -20.3099995   10194285.
 -20.1200008   10196361.
 -19.9300003   10198427.
 -19.7399998   10200492.
 -19.5499992   10202562.
 -19.3600006   10204639.
 -19.1700001   10206714.
 -18.9799995   10208782.
 -18.7900009   10210839.
 -18.6000004   10212898.
 -18.4099998   10214964.
 -18.2199993   10217046.
 -18.0300007   10219132.
 -17.8400002   10221214.
 -17.6499996   10223288.
 -17.4599991   10225356.
 -17.2700005   10227427.
 -17.0799999   10229508.
 -16.8899994   10231594.
 -16.7000008   10233678.
 -16.5100002   10235756.
 -16.3199997   10237832.
 -16.1299992   10239915.
 -15.9399996   10242007.
 -15.75   10244106.
 -15.5600004   10246203.
 -15.3699999   10248289.
 -15.1800003   10250366.
 -14.9899998   10252441.
 -14.8000002   10254527.
 -14.6099997   10256617.
 -14.4200001   10258706.
 -14.2299995   10260781.
 -14.04   10262844.
 -13.8500004   10264907.
 -13.6599998   10266978.
 -13.4700003   10269058.
 -13.2799997   10271136.
 -13.0900002   10273202.
 -12.8999996   10275257.
 -12.71   10277310.
 -12.5200005   10279374.
 -12.3299999   10281452.
 -12.1400003   10283530.
 -11.9499998   10285600.
 -11.7600002   10287658.
 -11.5699997   10289714.
 -11.3800001   10291781.
 -11.1899996   10293859.
 -11.   10295943.
 -10.8100004   10298017.
 -10.6199999   10300080.
 -10.4300003   10302142.
 -10.2399998   10304210.
 -10.0500002   10306287.
 -9.85999966   10308364.
 -9.67000008   10310431.
 -9.47999954   10312488.
 -9.28999996   10314545.
 -9.10000038   10316615.
 -8.90999985   10318699.
 -8.72000027   10320791.
 -8.52999973   10322879.
 -8.34000015   10324963.
 -8.14999962   10327044.
 -7.96000004   10329134.
 -7.76999998   10331232.
 -7.57999992   10333329.
 -7.38999987   10335420.
 -7.19999981   10337498.
 -7.01000023   10339572.
 -6.82000017   10341656.
 -6.63000011   10343755.
 -6.44000006   10345861.
 -6.25   10347967.
 -6.05999994   10350066.
 -5.86999989   10352156.
 -5.67999983   10354242.
 -5.48999977   10356328.
 -5.30000019   10358406.
 -5.11000013   10360471.
 -4.92000008   10362524.
 -4.73000002   10364577.
 -4.53999996   10366636.
 -4.3499999   10368705.
 -4.15999985   10370775.
 -3.97000003   10372840.
 -3.77999997   10374899.
 -3.58999991   10376959.
 -3.4000001   10379032.
 -3.21000004   10381116.
 -3.01999998   10383203.
 -2.82999992   10385288.
 -2.6400001   10387368.
 -2.45000005   10389453.
 -2.25999999   10391553.
 -2.06999993   10393664.
 -1.88   10395776.
 -1.69000006   10397878.
 -1.5   10399970.
 -1.30999994   10402055.
 -1.12   10404146.
 -0.930000007   10406242.
 -0.74000001   10408338.
 -0.550000012   10410424.
 -0.360000014   10412504.
 -0.170000002   10414584.
 1.999999955E-2   10416672.
 0.209999993   10418766.
 0.400000006   10420865.
 0.589999974   10422951.
 0.779999971   10425024.
 0.970000029   10427095.
 1.15999997   10429173.
 1.35000002   10431262.
 1.53999996   10433357.
 1.73000002   10435447.
 1.91999996   10437532.
 2.1099999   10439622.
 2.29999995   10441725.
 2.49000001   10443838.
 2.68000007   10445944.
 2.86999989   10448033.
 3.05999994   10450108.
 3.25   10452176.
 3.44000006   10454251.
 3.63000011   10456337.
 3.81999993   10458420.
 4.01000023   10460496.
 4.19999981   10462562.
 4.38999987   10464628.
 4.57999992   10466703.
 4.76999998   10468789.
 4.96000004   10470872.
 5.1500001   10472942.
 5.34000015   10474997.
 5.53000021   10477050.
 5.71999979   10479120.
 5.90999985   10481206.
 6.0999999   10483300.
 6.28999996   10485386.
 6.48000002   10487458.
 6.67000008   10489527.
 6.86000013   10491604.
 7.05000019   10493697.
 7.23999977   10495791.
 7.42999983   10497873.
 7.61999989   10499941.
 7.80999994   10502006.
 8.   10504081.
 8.18999958   10506173.
 8.38000011   10508267.
 8.56999969   10510348.
 8.76000023   10512412.
 8.94999981   10514469.
 9.14000034   10516538.
 9.32999992   10518623.
 9.52000046   10520716.
 9.71000004   10522801.
 9.89999962   10524871.
 10.0900002   10526932.
 10.2799997   10529000.
 10.4700003   10531085.
 10.6599998   10533177.
 10.8500004   10535259.
 11.04   10537326.
 11.2299995   10539386.
 11.4200001   10541453.
 11.6099997   10543538.
 11.8000002   10545635.
 11.9899998   10547726.
 12.1800003   10549803.
 12.3699999   10551866.
 12.5600004   10553932.
 12.75   10556011.
 12.9399996   10558101.
 13.1300001   10560191.
 13.3199997   10562272.
 13.5100002   10564340.
 13.6999998   10566409.
 13.8900003   10568490.
 14.0799999   10570581.
 14.2700005   10572668.
 14.46   10574742.
 14.6499996   10576803.
 14.8400002   10578862.
 15.0299997   10580938.
 15.2200003   10583031.
 15.4099998   10585133.
 15.6000004   10587232.
 15.79   10589316.
 15.9799995   10591393.
 16.1700001   10593474.
 16.3600006   10595565.
 16.5499992   10597658.
 16.7399998   10599739.
 16.9300003   10601802.
 17.1200008   10603860.
 17.3099995   10605931.
 17.5   10608019.
 17.6900005   10610119.
 17.8799992   10612209.
 18.0699997   10614282.
 18.2600002   10616342.
 18.4500008   10618410.
 18.6399994   10620489.
 18.8299999   10622576.
 19.0200005   10624654.
 19.2099991   10626712.
 19.3999996   10628762.
 19.5900002   10630827.
 19.7800007   10632919.
 19.9699993   10635033.
 20.1599998   10637144.
 20.3500004   10639232.
 20.5400009   10641301.
 20.7299995   10643372.
 20.9200001   10645455.
 21.1100006   10647549.
 21.2999992   10649634.
 21.4899998   10651701.
 21.6800003   10653755.
 21.8700008   10655814.
 22.0599995   10657896.
 22.25   10659998.
 22.4400005   10662101.
 22.6299992   10664189.
 22.8199997   10666260.
 23.0100002   10668333.
 23.2000008   10670421.
 23.3899994   10672525.
 23.5799999   10674630.
 23.7700005   10676720.
 23.9599991   10678789.
 24.1499996   10680860.
 24.3400002   10682939.
 24.5300007   10685034.
 24.7199993   10687133.
 24.9099998   10689219.
 25.1000004   10691287.
 25.2900009   10693351.
 25.4799995   10695423.
 25.6700001   10697511.
 25.8600006   10699608.
 26.0499992   10701700.
 26.2399998   10703780.
 26.4300003   10705854.
 26.6200008   10707935.
 26.8099995   10710028.
