 -30.   -592021.813
 -29.8099995   -592068.938
 -29.6200008   -592057.75
 -29.4300003   -592009.75
 -29.2399998   -591958.875
 -29.0499992   -591929.063
 -28.8600006   -591940.
 -28.6700001   -591995.25
 -28.4799995   -592087.25
 -28.2900009   -592187.813
 -28.1000004   -592267.
 -27.9099998   -592291.75
 -27.7199993   -592245.438
 -27.5300007   -592126.125
 -27.3400002   -591952.313
 -27.1499996   -591764.25
 -26.9599991   -591604.563
 -26.7700005   -591510.875
 -26.5799999   -591506.063
 -26.3899994   -591587.5
 -26.2000008   -591728.75
 -26.0100002   -591884.563
 -25.8199997   -592006.938
 -25.6299992   -592054.5
 -25.4400005   -592010.
 -25.25   -591880.75
 -25.0599995   -591706.563
 -24.8700008   -591533.625
 -24.6800003   -591415.938
 -24.4899998   -591387.5
 -24.2999992   -591453.25
 -24.1100006   -591593.75
 -23.9200001   -591763.875
 -23.7299995   -591908.5
 -23.5400009   -591980.813
 -23.3500004   -591953.75
 -23.1599998   -591829.813
 -22.9699993   -591640.125
 -22.7800007   -591434.063
 -22.5900002   -591267.625
 -22.3999996   -591179.25
 -22.2099991   -591188.938
 -22.0200005   -591281.5
 -21.8299999   -591422.063
 -21.6399994   -591560.125
 -21.4500008   -591650.688
 -21.2600002   -591666.688
 -21.0699997   -591598.625
 -20.8799992   -591469.625
 -20.6900005   -591321.063
 -20.5   -591200.25
 -20.3099995   -591149.375
 -20.1200008   -591188.75
 -19.9300003   -591322.375
 -19.7399998   -591518.625
 -19.5499992   -591738.25
 -19.3600006   -591935.75
 -19.1700001   -592073.75
 -18.9799995   -592133.063
 -18.7900009   -592122.063
 -18.6000004   -592064.438
 -18.4099998   -591998.5
 -18.2199993   -591968.563
 -18.0300007   -592006.375
 -17.8400002   -592120.5
 -17.6499996   -592303.063
 -17.4599991   -592525.375
 -17.2700005   -592746.5
 -17.0799999   -592926.688
 -16.8899994   -593042.25
 -16.7000008   -593086.438
 -16.5100002   -593075.625
 -16.3199997   -593036.125
 -16.1299992   -593003.5
 -15.9399996   -593011.063
 -15.75   -593078.688
 -15.5600004   -593208.25
 -15.3699999   -593383.75
 -15.1800003   -593575.813
 -14.9899998   -593748.25
 -14.8000002   -593873.75
 -14.6099997   -593935.5
 -14.4200001   -593936.75
 -14.2299995   -593892.813
 -14.04   -593839.313
 -13.8500004   -593811.625
 -13.6599998   -593843.438
 -13.4700003   -593956.063
 -13.2799997   -594147.938
 -13.0900002   -594404.688
 -12.8999996   -594692.25
 -12.71   -594970.5
 -12.5200005   -595203.063
 -12.3299999   -595367.813
 -12.1400003   -595463.313
 -11.9499998   -595505.125
 -11.7600002   -595529.
 -11.5699997   -595565.75
 -11.3800001   -595645.375
 -11.1899996   -595778.688
 -11.   -595961.188
 -10.8100004   -596166.188
 -10.6199999   -596358.875
 -10.4300003   -596498.25
 -10.2399998   -596560.75
 -10.0500002   -596539.375
 -9.85999966   -596454.063
 -9.67000008   -596329.625
 -9.47999954   -596212.875
 -9.28999996   -596143.563
 -9.10000038   -596149.
 -8.90999985   -596236.313
 -8.72000027   -596393.063
 -8.52999973   -596592.188
 -8.34000015   -596797.438
 -8.14999962   -596972.688
 -7.96000004   -597098.25
 -7.76999998   -597169.063
 -7.57999992   -597196.813
 -7.38999987   -597209.375
 -7.19999981   -597238.125
 -7.01000023   -597314.188
 -6.82000017   -597453.563
 -6.63000011   -597656.938
 -6.44000006   -597909.563
 -6.25   -598176.563
 -6.05999994   -598420.125
 -5.86999989   -598602.625
 -5.67999983   -598706.125
 -5.48999977   -598729.25
 -5.30000019   -598693.25
 -5.11000013   -598633.938
 -4.92000008   -598593.938
 -4.73000002   -598602.875
 -4.53999996   -598684.063
 -4.3499999   -598828.25
 -4.15999985   -599010.063
 -3.97000003   -599190.313
 -3.77999997   -599328.
 -3.58999991   -599394.375
 -3.4000001   -599382.375
 -3.21000004   -599306.688
 -3.01999998   -599201.813
 -2.82999992   -599111.813
 -2.6400001   -599083.688
 -2.45000005   -599140.313
 -2.25999999   -599294.75
 -2.06999993   -599527.688
 -1.88   -599801.625
 -1.69000006   -600069.
 -1.5   -600285.25
 -1.30999994   -600421.063
 -1.12   -600468.063
 -0.930000007   -600447.438
 -0.74000001   -600392.
 -0.550000012   -600349.625
 -0.360000014   -600359.125
 -0.170000002   -600445.563
 1.999999955E-2   -600610.25
 0.209999993   -600832.75
 0.400000006   -601073.5
 0.589999974   -601286.875
 0.779999971   -601436.5
 0.970000029   -601502.813
 1.15999997   -601489.688
 1.35000002   -601429.125
 1.53999996   -601366.063
 1.73000002   -601347.313
 1.91999996   -601405.375
 2.1099999   -601556.313
 2.29999995   -601782.813
 2.49000001   -602049.5
 2.68000007   -602302.5
 2.86999989   -602495.938
 3.05999994   -602594.813
 3.25   -602591.438
 3.44000006   -602511.125
 3.63000011   -602393.313
 3.81999993   -602288.813
 4.01000023   -602243.688
 4.19999981   -602282.875
 4.38999987   -602412.5
 4.57999992   -602609.75
 4.76999998   -602836.938
 4.96000004   -603048.938
 5.1500001   -603206.313
 5.34000015   -603291.438
 5.53000021   -603301.688
 5.71999979   -603268.
 5.90999985   -603230.188
 6.0999999   -603235.625
 6.28999996   -603321.625
 6.48000002   -603499.5
 6.67000008   -603760.75
 6.86000013   -604069.625
 7.05000019   -604376.188
 7.23999977   -604628.938
 7.42999983   -604788.5
 7.61999989   -604841.75
 7.80999994   -604796.938
 8.   -604689.5
 8.18999958   -604572.313
 8.38000011   -604494.25
 8.56999969   -604495.875
 8.76000023   -604588.438
 8.94999981   -604755.25
 9.14000034   -604956.813
 9.32999992   -605145.375
 9.52000046   -605273.375
 9.71000004   -605307.75
 9.89999962   -605251.875
 10.0900002   -605127.438
 10.2799997   -604986.313
 10.4700003   -604886.125
 10.6599998   -604878.063
 10.8500004   -604989.063
 11.04   -605214.063
 11.2299995   -605519.5
 11.4200001   -605846.938
 11.6099997   -606135.938
 11.8000002   -606342.625
 11.9899998   -606440.313
 12.1800003   -606440.188
 12.3699999   -606380.875
 12.5600004   -606317.688
 12.75   -606307.625
 12.9399996   -606393.375
 13.1300001   -606584.75
 13.3199997   -606863.
 13.5100002   -607182.375
 13.6999998   -607479.188
 13.8900003   -607698.938
 14.0799999   -607805.813
 14.2700005   -607798.438
 14.46   -607700.125
 14.6499996   -607566.438
 14.8400002   -607463.813
 15.0299997   -607439.625
 15.2200003   -607531.25
 15.4099998   -607734.438
 15.6000004   -608013.563
 15.79   -608315.938
 15.9799995   -608577.625
 16.1700001   -608757.625
 16.3600006   -608835.938
 16.5499992   -608828.25
 16.7399998   -608768.875
 16.9300003   -608712.
 17.1200008   -608712.875
 17.3099995   -608803.25
 17.5   -608992.188
 17.6900005   -609259.125
 17.8799992   -609555.875
 18.0699997   -609826.875
 18.2600002   -610021.063
 18.4500008   -610104.063
 18.6399994   -610080.438
 18.8299999   -609973.5
 19.0200005   -609830.438
 19.2099991   -609709.688
 19.3999996   -609657.813
 19.5900002   -609708.813
 19.7800007   -609862.
 19.9699993   -610091.375
 20.1599998   -610346.
 20.3500004   -610566.188
 20.5400009   -610705.25
 20.7299995   -610740.625
 20.9200001   -610680.375
 21.1100006   -610559.625
 21.2999992   -610438.563
 21.4899998   -610372.313
 21.6800003   -610402.313
 21.8700008   -610544.5
 22.0599995   -610781.188
 22.25   -611070.375
 22.4400005   -611347.688
 22.6299992   -611555.938
 22.8199997   -611655.563
 23.0100002   -611641.688
 23.2000008   -611544.875
 23.3899994   -611418.375
 23.5799999   -611326.313
 23.7700005   -611320.625
 23.9599991   -611430.75
 24.1499996   -611656.188
 24.3400002   -611962.875
 24.5300007   -612296.438
 24.7199993   -612597.75
 24.9099998   -612817.313
 25.1000004   -612932.313
 25.2900009   -612948.063
 25.4799995   -612900.125
 25.6700001   -612842.
 25.8600006   -612826.063
 26.0499992   -612890.063
 26.2399998   -613049.938
 26.4300003   -613289.938
 26.6200008   -613569.688
 26.8099995   -613836.75
