 -30.   -4436798.5
 -29.8099995   -4437689.
 -29.6200008   -4438565.5
 -29.4300003   -4439444.5
 -29.2399998   -4440332.
 -29.0499992   -4441232.5
 -28.8600006   -4442146.5
 -28.6700001   -4443067.
 -28.4799995   -4443986.5
 -28.2900009   -4444901.5
 -28.1000004   -4445809.
 -27.9099998   -4446713.
 -27.7199993   -4447621.5
 -27.5300007   -4448544.5
 -27.3400002   -4449480.
 -27.1499996   -4450429.5
 -26.9599991   -4451389.5
 -26.7700005   -4452346.
 -26.5799999   -4453291.
 -26.3899994   -4454214.
 -26.2000008   -4455117.5
 -26.0100002   -4456005.5
 -25.8199997   -4456889.
 -25.6299992   -4457780.5
 -25.4400005   -4458689.
 -25.25   -4459614.
 -25.0599995   -4460555.
 -24.8700008   -4461503.
 -24.6800003   -4462442.
 -24.4899998   -4463364.
 -24.2999992   -4464262.5
 -24.1100006   -4465139.
 -23.9200001   -4466003.5
 -23.7299995   -4466871.5
 -23.5400009   -4467757.5
 -23.3500004   -4468671.
 -23.1599998   -4469611.
 -22.9699993   -4470570.5
 -22.7800007   -4471535.5
 -22.5900002   -4472488.5
 -22.3999996   -4473421.5
 -22.2099991   -4474327.
 -22.0200005   -4475212.5
 -21.8299999   -4476084.5
 -21.6399994   -4476962.
 -21.4500008   -4477856.5
 -21.2600002   -4478773.
 -21.0699997   -4479709.5
 -20.8799992   -4480658.
 -20.6900005   -4481602.
 -20.5   -4482532.
 -20.3099995   -4483436.5
 -20.1200008   -4484315.
 -19.9300003   -4485173.
 -19.7399998   -4486019.5
 -19.5499992   -4486867.5
 -19.3600006   -4487729.5
 -19.1700001   -4488615.5
 -18.9799995   -4489524.
 -18.7900009   -4490445.5
 -18.6000004   -4491369.
 -18.4099998   -4492280.
 -18.2199993   -4493166.5
 -18.0300007   -4494031.
 -17.8400002   -4494875.5
 -17.6499996   -4495718.5
 -17.4599991   -4496564.
 -17.2700005   -4497433.
 -17.0799999   -4498328.5
 -16.8899994   -4499250.
 -16.7000008   -4500187.5
 -16.5100002   -4501125.
 -16.3199997   -4502050.5
 -16.1299992   -4502956.
 -15.9399996   -4503840.5
 -15.75   -4504710.5
 -15.5600004   -4505577.
 -15.3699999   -4506448.5
 -15.1800003   -4507334.5
 -14.9899998   -4508240.5
 -14.8000002   -4509159.5
 -14.6099997   -4510090.
 -14.4200001   -4511023.5
 -14.2299995   -4511951.
 -14.04   -4512866.5
 -13.8500004   -4513765.
 -13.6599998   -4514651.
 -13.4700003   -4515525.5
 -13.2799997   -4516397.
 -13.0900002   -4517272.5
 -12.8999996   -4518154.5
 -12.71   -4519047.5
 -12.5200005   -4519948.5
 -12.3299999   -4520855.
 -12.1400003   -4521756.5
 -11.9499998   -4522652.
 -11.7600002   -4523536.5
 -11.5699997   -4524413.
 -11.3800001   -4525287.
 -11.1899996   -4526164.5
 -11.   -4527049.5
 -10.8100004   -4527943.5
 -10.6199999   -4528843.
 -10.4300003   -4529746.
 -10.2399998   -4530648.5
 -10.0500002   -4531546.5
 -9.85999966   -4532438.5
 -9.67000008   -4533325.5
 -9.47999954   -4534209.5
 -9.28999996   -4535093.5
 -9.10000038   -4535976.5
 -8.90999985   -4536858.
 -8.72000027   -4537738.5
 -8.52999973   -4538617.
 -8.34000015   -4539494.
 -8.14999962   -4540367.
 -7.96000004   -4541243.
 -7.76999998   -4542121.
 -7.57999992   -4543003.5
 -7.38999987   -4543889.5
 -7.19999981   -4544774.
 -7.01000023   -4545655.
 -6.82000017   -4546529.
 -6.63000011   -4547394.
 -6.44000006   -4548256.5
 -6.25   -4549119.
 -6.05999994   -4549995.
 -5.86999989   -4550881.
 -5.67999983   -4551782.
 -5.48999977   -4552691.5
 -5.30000019   -4553604.5
 -5.11000013   -4554505.5
 -4.92000008   -4555392.
 -4.73000002   -4556261.
 -4.53999996   -4557117.
 -4.3499999   -4557971.
 -4.15999985   -4558832.
 -3.97000003   -4559712.
 -3.77999997   -4560613.
 -3.58999991   -4561531.5
 -3.4000001   -4562458.
 -3.21000004   -4563381.5
 -3.01999998   -4564290.5
 -2.82999992   -4565178.5
 -2.6400001   -4566048.5
 -2.45000005   -4566909.
 -2.25999999   -4567769.
 -2.06999993   -4568638.
 -1.88   -4569517.5
 -1.69000006   -4570411.
 -1.5   -4571311.
 -1.30999994   -4572209.5
 -1.12   -4573098.
 -0.930000007   -4573977.5
 -0.74000001   -4574852.5
 -0.550000012   -4575723.
 -0.360000014   -4576594.5
 -0.170000002   -4577471.5
 1.999999955E-2   -4578355.5
 0.209999993   -4579240.
 0.400000006   -4580126.
 0.589999974   -4581012.5
 0.779999971   -4581897.
 0.970000029   -4582786.
 1.15999997   -4583678.
 1.35000002   -4584574.5
 1.53999996   -4585473.
 1.73000002   -4586368.5
 1.91999996   -4587259.5
 2.1099999   -4588140.5
 2.29999995   -4589013.5
 2.49000001   -4589883.
 2.68000007   -4590756.5
 2.86999989   -4591638.5
 3.05999994   -4592531.
 3.25   -4593432.
 3.44000006   -4594339.
 3.63000011   -4595243.
 3.81999993   -4596144.5
 4.01000023   -4597038.5
 4.19999981   -4597925.5
 4.38999987   -4598812.
 4.57999992   -4599696.
 4.76999998   -4600581.
 4.96000004   -4601466.5
 5.1500001   -4602354.5
 5.34000015   -4603238.5
 5.53000021   -4604124.
 5.71999979   -4605009.
 5.90999985   -4605892.5
 6.0999999   -4606776.
 6.28999996   -4607653.
 6.48000002   -4608524.5
 6.67000008   -4609388.
 6.86000013   -4610246.
 7.05000019   -4611104.5
 7.23999977   -4611966.
 7.42999983   -4612833.
 7.61999989   -4613707.5
 7.80999994   -4614590.5
 8.   -4615471.5
 8.18999958   -4616347.5
 8.38000011   -4617214.
 8.56999969   -4618069.
 8.76000023   -4618915.5
 8.94999981   -4619764.5
 9.14000034   -4620617.
 9.32999992   -4621482.
 9.52000046   -4622363.
 9.71000004   -4623257.5
 9.89999962   -4624163.5
 10.0900002   -4625066.5
 10.2799997   -4625966.
 10.4700003   -4626847.
 10.6599998   -4627711.
 10.8500004   -4628557.5
 11.04   -4629397.
 11.2299995   -4630235.5
 11.4200001   -4631084.
 11.6099997   -4631944.5
 11.8000002   -4632817.
 11.9899998   -4633694.5
 12.1800003   -4634571.
 12.3699999   -4635436.5
 12.5600004   -4636283.5
 12.75   -4637108.
 12.9399996   -4637917.5
 13.1300001   -4638722.
 13.3199997   -4639531.
 13.5100002   -4640354.5
 13.6999998   -4641195.5
 13.8900003   -4642052.5
 14.0799999   -4642922.5
 14.2700005   -4643796.
 14.46   -4644668.5
 14.6499996   -4645532.5
 14.8400002   -4646387.
 15.0299997   -4647226.5
 15.2200003   -4648058.5
 15.4099998   -4648886.
 15.6000004   -4649718.
 15.79   -4650558.5
 15.9799995   -4651407.
 16.1700001   -4652264.5
 16.3600006   -4653124.
 16.5499992   -4653982.5
 16.7399998   -4654835.5
 16.9300003   -4655677.5
 17.1200008   -4656505.5
 17.3099995   -4657323.
 17.5   -4658132.
 17.6900005   -4658943.
 17.8799992   -4659759.
 18.0699997   -4660586.
 18.2600002   -4661422.
 18.4500008   -4662266.5
 18.6399994   -4663115.5
 18.8299999   -4663967.5
 19.0200005   -4664819.5
 19.2099991   -4665669.5
 19.3999996   -4666514.
 19.5900002   -4667350.5
 19.7800007   -4668181.5
 19.9699993   -4669008.5
 20.1599998   -4669836.5
 20.3500004   -4670667.5
 20.5400009   -4671503.5
 20.7299995   -4672349.
 20.9200001   -4673201.
 21.1100006   -4674060.
 21.2999992   -4674921.
 21.4899998   -4675777.
 21.6800003   -4676622.
 21.8700008   -4677454.5
 22.0599995   -4678277.5
 22.25   -4679099.
 22.4400005   -4679925.5
 22.6299992   -4680766.
 22.8199997   -4681622.
 23.0100002   -4682498.
 23.2000008   -4683385.5
 23.3899994   -4684277.
 23.5799999   -4685161.
 23.7700005   -4686031.5
 23.9599991   -4686878.5
 24.1499996   -4687707.5
 24.3400002   -4688524.
 24.5300007   -4689338.
 24.7199993   -4690157.
 24.9099998   -4690988.
 25.1000004   -4691829.5
 25.2900009   -4692679.
 25.4799995   -4693529.5
 25.6700001   -4694373.
 25.8600006   -4695205.5
 26.0499992   -4696024.5
 26.2399998   -4696836.
 26.4300003   -4697645.5
 26.6200008   -4698466.
 26.8099995   -4699306.
