 -30.   -535252.875
 -29.8099995   -535352.
 -29.6200008   -535442.625
 -29.4300003   -535529.063
 -29.2399998   -535615.875
 -29.0499992   -535707.688
 -28.8600006   -535805.688
 -28.6700001   -535908.313
 -28.4799995   -536014.875
 -28.2900009   -536120.875
 -28.1000004   -536222.063
 -27.9099998   -536318.625
 -27.7199993   -536406.563
 -27.5300007   -536488.063
 -27.3400002   -536568.188
 -27.1499996   -536648.938
 -26.9599991   -536735.25
 -26.7700005   -536829.75
 -26.5799999   -536931.5
 -26.3899994   -537038.75
 -26.2000008   -537149.063
 -26.0100002   -537257.688
 -25.8199997   -537363.063
 -25.6299992   -537460.
 -25.4400005   -537551.625
 -25.25   -537636.5
 -25.0599995   -537721.
 -24.8700008   -537807.25
 -24.6800003   -537898.938
 -24.4899998   -537998.313
 -24.2999992   -538105.438
 -24.1100006   -538217.5
 -23.9200001   -538327.75
 -23.7299995   -538433.688
 -23.5400009   -538532.938
 -23.3500004   -538625.188
 -23.1599998   -538710.563
 -22.9699993   -538792.688
 -22.7800007   -538877.313
 -22.5900002   -538966.75
 -22.3999996   -539066.25
 -22.2099991   -539173.625
 -22.0200005   -539285.938
 -21.8299999   -539400.75
 -21.6399994   -539513.438
 -21.4500008   -539619.75
 -21.2600002   -539718.563
 -21.0699997   -539810.188
 -20.8799992   -539897.875
 -20.6900005   -539984.125
 -20.5   -540074.688
 -20.3099995   -540173.938
 -20.1200008   -540283.438
 -19.9300003   -540398.75
 -19.7399998   -540519.438
 -19.5499992   -540637.688
 -19.3600006   -540751.063
 -19.1700001   -540856.
 -18.9799995   -540952.25
 -18.7900009   -541041.063
 -18.6000004   -541128.938
 -18.4099998   -541220.
 -18.2199993   -541317.125
 -18.0300007   -541423.25
 -17.8400002   -541537.875
 -17.6499996   -541657.75
 -17.4599991   -541781.
 -17.2700005   -541901.25
 -17.0799999   -542014.063
 -16.8899994   -542120.438
 -16.7000008   -542217.938
 -16.5100002   -542309.5
 -16.3199997   -542399.938
 -16.1299992   -542494.188
 -15.9399996   -542592.563
 -15.75   -542697.125
 -15.5600004   -542807.313
 -15.3699999   -542921.063
 -15.1800003   -543032.
 -14.9899998   -543141.75
 -14.8000002   -543244.
 -14.6099997   -543341.75
 -14.4200001   -543433.313
 -14.2299995   -543524.313
 -14.04   -543617.063
 -13.8500004   -543717.5
 -13.6599998   -543825.563
 -13.4700003   -543943.25
 -13.2799997   -544066.125
 -13.0900002   -544192.625
 -12.8999996   -544315.375
 -12.71   -544433.625
 -12.5200005   -544543.75
 -12.3299999   -544647.563
 -12.1400003   -544745.125
 -11.9499998   -544842.
 -11.7600002   -544942.875
 -11.5699997   -545050.25
 -11.3800001   -545164.
 -11.1899996   -545280.938
 -11.   -545396.
 -10.8100004   -545505.438
 -10.6199999   -545607.188
 -10.4300003   -545697.625
 -10.2399998   -545781.875
 -10.0500002   -545864.25
 -9.85999966   -545949.563
 -9.67000008   -546041.188
 -9.47999954   -546142.188
 -9.28999996   -546251.938
 -9.10000038   -546368.125
 -8.90999985   -546485.063
 -8.72000027   -546599.
 -8.52999973   -546708.25
 -8.34000015   -546810.625
 -8.14999962   -546908.563
 -7.96000004   -547004.688
 -7.76999998   -547102.188
 -7.57999992   -547206.563
 -7.38999987   -547317.125
 -7.19999981   -547435.188
 -7.01000023   -547561.188
 -6.82000017   -547689.313
 -6.63000011   -547816.188
 -6.44000006   -547939.
 -6.25   -548056.375
 -6.05999994   -548165.125
 -5.86999989   -548267.563
 -5.67999983   -548366.625
 -5.48999977   -548461.125
 -5.30000019   -548557.938
 -5.11000013   -548657.688
 -4.92000008   -548761.813
 -4.73000002   -548871.25
 -4.53999996   -548986.563
 -4.3499999   -549102.375
 -4.15999985   -549216.063
 -3.97000003   -549325.125
 -3.77999997   -549429.
 -3.58999991   -549525.625
 -3.4000001   -549619.938
 -3.21000004   -549712.75
 -3.01999998   -549808.75
 -2.82999992   -549911.188
 -2.6400001   -550020.5
 -2.45000005   -550136.375
 -2.25999999   -550254.938
 -2.06999993   -550375.875
 -1.88   -550492.563
 -1.69000006   -550603.375
 -1.5   -550707.875
 -1.30999994   -550807.563
 -1.12   -550906.438
 -0.930000007   -551009.188
 -0.74000001   -551116.938
 -0.550000012   -551231.563
 -0.360000014   -551348.438
 -0.170000002   -551468.625
 1.999999955E-2   -551587.75
 0.209999993   -551701.875
 0.400000006   -551809.5
 0.589999974   -551913.063
 0.779999971   -552011.938
 0.970000029   -552109.75
 1.15999997   -552211.125
 1.35000002   -552316.063
 1.53999996   -552424.813
 1.73000002   -552538.313
 1.91999996   -552653.188
 2.1099999   -552769.25
 2.29999995   -552881.438
 2.49000001   -552989.25
 2.68000007   -553096.313
 2.86999989   -553197.313
 3.05999994   -553299.
 3.25   -553399.438
 3.44000006   -553504.313
 3.63000011   -553612.25
 3.81999993   -553722.625
 4.01000023   -553834.563
 4.19999981   -553946.25
 4.38999987   -554057.25
 4.57999992   -554166.063
 4.76999998   -554271.813
 4.96000004   -554375.688
 5.1500001   -554476.313
 5.34000015   -554578.625
 5.53000021   -554682.75
 5.71999979   -554791.563
 5.90999985   -554904.25
 6.0999999   -555022.25
 6.28999996   -555143.25
 6.48000002   -555265.5
 6.67000008   -555387.688
 6.86000013   -555505.625
 7.05000019   -555619.875
 7.23999977   -555728.938
 7.42999983   -555834.563
 7.61999989   -555936.563
 7.80999994   -556039.938
 8.   -556143.938
 8.18999958   -556253.938
 8.38000011   -556368.5
 8.56999969   -556486.25
 8.76000023   -556605.438
 8.94999981   -556721.188
 9.14000034   -556832.813
 9.32999992   -556936.75
 9.52000046   -557032.688
 9.71000004   -557125.5
 9.89999962   -557217.063
 10.0900002   -557314.625
 10.2799997   -557418.563
 10.4700003   -557532.
 10.6599998   -557654.063
 10.8500004   -557780.688
 11.04   -557904.938
 11.2299995   -558025.188
 11.4200001   -558139.5
 11.6099997   -558244.75
 11.8000002   -558345.813
 11.9899998   -558447.188
 12.1800003   -558556.313
 12.3699999   -558673.5
 12.5600004   -558798.938
 12.75   -558930.938
 12.9399996   -559063.313
 13.1300001   -559191.
 13.3199997   -559308.125
 13.5100002   -559413.063
 13.6999998   -559508.875
 13.8900003   -559600.563
 14.0799999   -559692.063
 14.2700005   -559787.563
 14.46   -559892.75
 14.6499996   -560005.313
 14.8400002   -560125.063
 15.0299997   -560245.75
 15.2200003   -560364.375
 15.4099998   -560476.313
 15.6000004   -560581.625
 15.79   -560679.813
 15.9799995   -560777.25
 16.1700001   -560874.063
 16.3600006   -560975.313
 16.5499992   -561080.188
 16.7399998   -561188.875
 16.9300003   -561300.375
 17.1200008   -561414.125
 17.3099995   -561528.688
 17.5   -561643.25
 17.6900005   -561754.25
 17.8799992   -561862.938
 18.0699997   -561968.625
 18.2600002   -562071.125
 18.4500008   -562174.375
 18.6399994   -562275.75
 18.8299999   -562379.25
 19.0200005   -562485.125
 19.2099991   -562593.063
 19.3999996   -562703.5
 19.5900002   -562816.
 19.7800007   -562928.063
 19.9699993   -563038.188
 20.1599998   -563146.375
 20.3500004   -563252.875
 20.5400009   -563356.688
 20.7299995   -563462.
 20.9200001   -563567.813
 21.1100006   -563675.938
 21.2999992   -563786.188
 21.4899998   -563900.688
 21.6800003   -564016.938
 21.8700008   -564135.375
 22.0599995   -564253.188
 22.25   -564369.625
 22.4400005   -564483.313
 22.6299992   -564594.25
 22.8199997   -564704.
 23.0100002   -564817.063
 23.2000008   -564931.563
 23.3899994   -565048.125
 23.5799999   -565167.938
 23.7700005   -565289.875
 23.9599991   -565415.125
 24.1499996   -565538.375
 24.3400002   -565660.938
 24.5300007   -565780.125
 24.7199993   -565897.
 24.9099998   -566012.063
 25.1000004   -566127.5
 25.2900009   -566247.
 25.4799995   -566370.563
 25.6700001   -566496.25
 25.8600006   -566627.125
 26.0499992   -566757.5
 26.2399998   -566885.75
 26.4300003   -567012.813
 26.6200008   -567135.188
 26.8099995   -567249.688
