 -30.   8253457.5
 -29.8099995   8255130.
 -29.6200008   8256791.
 -29.4300003   8258446.5
 -29.2399998   8260098.5
 -29.0499992   8261758.
 -28.8600006   8263423.
 -28.6700001   8265096.5
 -28.4799995   8266775.
 -28.2900009   8268452.
 -28.1000004   8270124.5
 -27.9099998   8271785.5
 -27.7199993   8273436.5
 -27.5300007   8275075.5
 -27.3400002   8276710.
 -27.1499996   8278343.
 -26.9599991   8279982.5
 -26.7700005   8281630.5
 -26.5799999   8283290.
 -26.3899994   8284958.
 -26.2000008   8286632.
 -26.0100002   8288301.
 -25.8199997   8289966.
 -25.6299992   8291618.5
 -25.4400005   8293258.5
 -25.25   8294890.5
 -25.0599995   8296517.
 -24.8700008   8298145.5
 -24.6800003   8299782.
 -24.4899998   8301429.
 -24.2999992   8303085.
 -24.1100006   8304747.5
 -23.9200001   8306412.5
 -23.7299995   8308072.
 -23.5400009   8309720.
 -23.3500004   8311353.5
 -23.1599998   8312976.5
 -22.9699993   8314591.5
 -22.7800007   8316206.
 -22.5900002   8317827.
 -22.3999996   8319459.
 -22.2099991   8321104.5
 -22.0200005   8322759.
 -21.8299999   8324416.
 -21.6399994   8326071.5
 -21.4500008   8327718.5
 -21.2600002   8329354.
 -21.0699997   8330979.5
 -20.8799992   8332595.
 -20.6900005   8334209.5
 -20.5   8335829.
 -20.3099995   8337458.5
 -20.1200008   8339103.
 -19.9300003   8340758.5
 -19.7399998   8342420.5
 -19.5499992   8344083.
 -19.3600006   8345736.
 -19.1700001   8347380.5
 -18.9799995   8349010.5
 -18.7900009   8350635.
 -18.6000004   8352255.
 -18.4099998   8353880.
 -18.2199993   8355513.
 -18.0300007   8357157.5
 -17.8400002   8358813.
 -17.6499996   8360478.
 -17.4599991   8362143.5
 -17.2700005   8363807.5
 -17.0799999   8365460.5
 -16.8899994   8367103.5
 -16.7000008   8368735.5
 -16.5100002   8370363.
 -16.3199997   8371987.5
 -16.1299992   8373617.
 -15.9399996   8375253.5
 -15.75   8376898.
 -15.5600004   8378550.5
 -15.3699999   8380207.5
 -15.1800003   8381862.
 -14.9899998   8383510.5
 -14.8000002   8385149.
 -14.6099997   8386777.
 -14.4200001   8388397.
 -14.2299995   8390015.
 -14.04   8391635.
 -13.8500004   8393262.
 -13.6599998   8394898.
 -13.4700003   8396544.
 -13.2799997   8398201.
 -13.0900002   8399861.
 -12.8999996   8401522.
 -12.71   8403178.
 -12.5200005   8404825.
 -12.3299999   8406463.
 -12.1400003   8408095.
 -11.9499998   8409722.
 -11.7600002   8411351.
 -11.5699997   8412983.
 -11.3800001   8414621.
 -11.1899996   8416266.
 -11.   8417911.
 -10.8100004   8419558.
 -10.6199999   8421195.
 -10.4300003   8422823.
 -10.2399998   8424436.
 -10.0500002   8426036.
 -9.85999966   8427629.
 -9.67000008   8429218.
 -9.47999954   8430810.
 -9.28999996   8432408.
 -9.10000038   8434019.
 -8.90999985   8435640.
 -8.72000027   8437270.
 -8.52999973   8438904.
 -8.34000015   8440536.
 -8.14999962   8442161.
 -7.96000004   8443779.
 -7.76999998   8445389.
 -7.57999992   8446996.
 -7.38999987   8448606.
 -7.19999981   8450220.
 -7.01000023   8451849.
 -6.82000017   8453484.
 -6.63000011   8455130.
 -6.44000006   8456777.
 -6.25   8458424.
 -6.05999994   8460057.
 -5.86999989   8461679.
 -5.67999983   8463286.
 -5.48999977   8464885.
 -5.30000019   8466478.
 -5.11000013   8468074.
 -4.92000008   8469675.
 -4.73000002   8471289.
 -4.53999996   8472909.
 -4.3499999   8474534.
 -4.15999985   8476156.
 -3.97000003   8477771.
 -3.77999997   8479376.
 -3.58999991   8480968.
 -3.4000001   8482550.
 -3.21000004   8484125.
 -3.01999998   8485706.
 -2.82999992   8487295.
 -2.6400001   8488901.
 -2.45000005   8490520.
 -2.25999999   8492153.
 -2.06999993   8493790.
 -1.88   8495423.
 -1.69000006   8497045.
 -1.5   8498652.
 -1.30999994   8500244.
 -1.12   8501825.
 -0.930000007   8503404.
 -0.74000001   8504991.
 -0.550000012   8506588.
 -0.360000014   8508200.
 -0.170000002   8509825.
 1.999999955E-2   8511456.
 0.209999993   8513087.
 0.400000006   8514709.
 0.589999974   8516315.
 0.779999971   8517905.
 0.970000029   8519482.
 1.15999997   8521055.
 1.35000002   8522633.
 1.53999996   8524223.
 1.73000002   8525827.
 1.91999996   8527445.
 2.1099999   8529076.
 2.29999995   8530709.
 2.49000001   8532333.
 2.68000007   8533944.
 2.86999989   8535533.
 3.05999994   8537105.
 3.25   8538666.
 3.44000006   8540224.
 3.63000011   8541789.
 3.81999993   8543368.
 4.01000023   8544964.
 4.19999981   8546575.
 4.38999987   8548194.
 4.57999992   8549814.
 4.76999998   8551422.
 4.96000004   8553014.
 5.1500001   8554591.
 5.34000015   8556157.
 5.53000021   8557718.
 5.71999979   8559286.
 5.90999985   8560866.
 6.0999999   8562468.
 6.28999996   8564087.
 6.48000002   8565716.
 6.67000008   8567346.
 6.86000013   8568967.
 7.05000019   8570567.
 7.23999977   8572149.
 7.42999983   8573712.
 7.61999989   8575263.
 7.80999994   8576813.
 8.   8578372.
 8.18999958   8579942.
 8.38000011   8581524.
 8.56999969   8583113.
 8.76000023   8584702.
 8.94999981   8586283.
 9.14000034   8587851.
 9.32999992   8589406.
 9.52000046   8590947.
 9.71000004   8592481.
 9.89999962   8594017.
 10.0900002   8595563.
 10.2799997   8597123.
 10.4700003   8598700.
 10.6599998   8600291.
 10.8500004   8601888.
 11.04   8603486.
 11.2299995   8605074.
 11.4200001   8606650.
 11.6099997   8608209.
 11.8000002   8609757.
 11.9899998   8611300.
 12.1800003   8612845.
 12.3699999   8614399.
 12.5600004   8615966.
 12.75   8617545.
 12.9399996   8619134.
 13.1300001   8620724.
 13.3199997   8622308.
 13.5100002   8623878.
 13.6999998   8625432.
 13.8900003   8626970.
 14.0799999   8628497.
 14.2700005   8630017.
 14.46   8631546.
 14.6499996   8633088.
 14.8400002   8634647.
 15.0299997   8636223.
 15.2200003   8637808.
 15.4099998   8639395.
 15.6000004   8640972.
 15.79   8642534.
 15.9799995   8644078.
 16.1700001   8645606.
 16.3600006   8647127.
 16.5499992   8648652.
 16.7399998   8650190.
 16.9300003   8651747.
 17.1200008   8653320.
 17.3099995   8654905.
 17.5   8656490.
 17.6900005   8658066.
 17.8799992   8659626.
 18.0699997   8661165.
 18.2600002   8662686.
 18.4500008   8664196.
 18.6399994   8665707.
 18.8299999   8667232.
 19.0200005   8668776.
 19.2099991   8670341.
 19.3999996   8671923.
 19.5900002   8673514.
 19.7800007   8675103.
 19.9699993   8676681.
 20.1599998   8678241.
 20.3500004   8679782.
 20.5400009   8681308.
 20.7299995   8682832.
 20.9200001   8684361.
 21.1100006   8685907.
 21.2999992   8687471.
 21.4899998   8689053.
 21.6800003   8690645.
 21.8700008   8692236.
 22.0599995   8693815.
 22.25   8695379.
 22.4400005   8696922.
 22.6299992   8698447.
 22.8199997   8699964.
 23.0100002   8701485.
 23.2000008   8703019.
 23.3899994   8704573.
 23.5799999   8706148.
 23.7700005   8707738.
 23.9599991   8709336.
 24.1499996   8710928.
 24.3400002   8712508.
 24.5300007   8714070.
 24.7199993   8715614.
 24.9099998   8717148.
 25.1000004   8718680.
 25.2900009   8720223.
 25.4799995   8721781.
 25.6700001   8723359.
 25.8600006   8724950.
 26.0499992   8726550.
 26.2399998   8728141.
 26.4300003   8729717.
 26.6200008   8731269.
 26.8099995   8732797.
