 -30.   7308395.
 -29.8099995   7309904.
 -29.6200008   7311418.5
 -29.4300003   7312923.5
 -29.2399998   7314419.
 -29.0499992   7315916.
 -28.8600006   7317423.5
 -28.6700001   7318942.
 -28.4799995   7320463.
 -28.2900009   7321976.
 -28.1000004   7323475.
 -27.9099998   7324973.5
 -27.7199993   7326479.
 -27.5300007   7327995.
 -27.3400002   7329517.5
 -27.1499996   7331033.5
 -26.9599991   7332537.5
 -26.7700005   7334036.5
 -26.5799999   7335546.5
 -26.3899994   7337067.
 -26.2000008   7338595.
 -26.0100002   7340114.5
 -25.8199997   7341623.
 -25.6299992   7343126.
 -25.4400005   7344632.
 -25.25   7346148.
 -25.0599995   7347671.5
 -24.8700008   7349191.5
 -24.6800003   7350699.5
 -24.4899998   7352200.5
 -24.2999992   7353702.
 -24.1100006   7355216.5
 -23.9200001   7356738.5
 -23.7299995   7358260.5
 -23.5400009   7359771.5
 -23.3500004   7361271.
 -23.1599998   7362771.
 -22.9699993   7364278.5
 -22.7800007   7365797.5
 -22.5900002   7367315.5
 -22.3999996   7368824.5
 -22.2099991   7370324.
 -22.0200005   7371820.
 -21.8299999   7373325.5
 -21.6399994   7374845.
 -21.4500008   7376368.5
 -21.2600002   7377884.
 -21.0699997   7379383.5
 -20.8799992   7380875.5
 -20.6900005   7382371.5
 -20.5   7383878.5
 -20.3099995   7385389.5
 -20.1200008   7386893.5
 -19.9300003   7388383.5
 -19.7399998   7389871.5
 -19.5499992   7391367.5
 -19.3600006   7392880.5
 -19.1700001   7394405.5
 -18.9799995   7395927.
 -18.7900009   7397435.
 -18.6000004   7398935.
 -18.4099998   7400438.
 -18.2199993   7401955.5
 -18.0300007   7403483.
 -17.8400002   7405003.5
 -17.6499996   7406508.
 -17.4599991   7408001.
 -17.2700005   7409494.
 -17.0799999   7410997.
 -16.8899994   7412515.5
 -16.7000008   7414034.5
 -16.5100002   7415539.5
 -16.3199997   7417033.
 -16.1299992   7418528.
 -15.9399996   7420042.
 -15.75   7421573.
 -15.5600004   7423111.5
 -15.3699999   7424636.
 -15.1800003   7426145.
 -14.9899998   7427652.5
 -14.8000002   7429170.
 -14.6099997   7430704.5
 -14.4200001   7432239.
 -14.2299995   7433759.
 -14.04   7435259.
 -13.8500004   7436754.5
 -13.6599998   7438264.
 -13.4700003   7439793.
 -13.2799997   7441327.
 -13.0900002   7442850.
 -12.8999996   7444353.
 -12.71   7445848.5
 -12.5200005   7447356.5
 -12.3299999   7448881.
 -12.1400003   7450412.
 -11.9499998   7451932.
 -11.7600002   7453434.
 -11.5699997   7454926.5
 -11.3800001   7456433.
 -11.1899996   7457961.5
 -11.   7459501.
 -10.8100004   7461027.5
 -10.6199999   7462531.
 -10.4300003   7464018.
 -10.2399998   7465513.
 -10.0500002   7467025.
 -9.85999966   7468548.5
 -9.67000008   7470066.
 -9.47999954   7471563.5
 -9.28999996   7473047.5
 -9.10000038   7474540.
 -8.90999985   7476056.5
 -8.72000027   7477590.
 -8.52999973   7479119.
 -8.34000015   7480627.5
 -8.14999962   7482122.
 -7.96000004   7483618.
 -7.76999998   7485131.
 -7.57999992   7486658.5
 -7.38999987   7488179.
 -7.19999981   7489678.
 -7.01000023   7491157.
 -6.82000017   7492633.
 -6.63000011   7494125.5
 -6.44000006   7495637.
 -6.25   7497147.5
 -6.05999994   7498645.5
 -5.86999989   7500130.
 -5.67999983   7501620.
 -5.48999977   7503131.5
 -5.30000019   7504662.
 -5.11000013   7506193.
 -4.92000008   7507710.5
 -4.73000002   7509207.5
 -4.53999996   7510697.5
 -4.3499999   7512196.
 -4.15999985   7513708.
 -3.97000003   7515228.
 -3.77999997   7516736.
 -3.58999991   7518228.
 -3.4000001   7519718.
 -3.21000004   7521221.
 -3.01999998   7522743.
 -2.82999992   7524276.5
 -2.6400001   7525800.
 -2.45000005   7527305.
 -2.25999999   7528801.5
 -2.06999993   7530305.
 -1.88   7531828.5
 -1.69000006   7533366.
 -1.5   7534895.5
 -1.30999994   7536406.5
 -1.12   7537905.
 -0.930000007   7539406.5
 -0.74000001   7540923.5
 -0.550000012   7542450.5
 -0.360000014   7543971.
 -0.170000002   7545476.5
 1.999999955E-2   7546968.
 0.209999993   7548463.5
 0.400000006   7549978.
 0.589999974   7551510.5
 0.779999971   7553044.5
 0.970000029   7554561.5
 1.15999997   7556064.5
 1.35000002   7557566.
 1.53999996   7559082.
 1.73000002   7560614.5
 1.91999996   7562151.
 2.1099999   7563676.5
 2.29999995   7565187.5
 2.49000001   7566693.5
 2.68000007   7568211.5
 2.86999989   7569744.
 3.05999994   7571282.
 3.25   7572806.5
 3.44000006   7574312.5
 3.63000011   7575808.
 3.81999993   7577314.
 4.01000023   7578839.
 4.19999981   7580377.
 4.38999987   7581912.
 4.57999992   7583433.
 4.76999998   7584947.5
 4.96000004   7586468.
 5.1500001   7588005.
 5.34000015   7589554.5
 5.53000021   7591089.5
 5.71999979   7592606.
 5.90999985   7594107.5
 6.0999999   7595611.5
 6.28999996   7597133.5
 6.48000002   7598670.5
 6.67000008   7600206.5
 6.86000013   7601727.5
 7.05000019   7603235.
 7.23999977   7604744.
 7.42999983   7606269.
 7.61999989   7607811.
 7.80999994   7609352.5
 8.   7610880.
 8.18999958   7612393.
 8.38000011   7613906.
 8.56999969   7615434.5
 8.76000023   7616981.5
 8.94999981   7618527.5
 9.14000034   7620051.5
 9.32999992   7621556.
 9.52000046   7623055.5
 9.71000004   7624569.
 9.89999962   7626103.
 10.0900002   7627639.5
 10.2799997   7629167.5
 10.4700003   7630675.
 10.6599998   7632179.
 10.8500004   7633697.
 11.04   7635236.
 11.2299995   7636781.5
 11.4200001   7638315.
 11.6099997   7639821.5
 11.8000002   7641320.
 11.9899998   7642830.
 12.1800003   7644362.
 12.3699999   7645906.5
 12.5600004   7647441.
 12.75   7648951.5
 12.9399996   7650448.5
 13.1300001   7651955.
 13.3199997   7653486.5
 13.5100002   7655029.5
 13.6999998   7656561.5
 13.8900003   7658068.
 14.0799999   7659561.5
 14.2700005   7661065.
 14.46   7662594.
 14.6499996   7664141.
 14.8400002   7665685.
 15.0299997   7667208.
 15.2200003   7668716.
 15.4099998   7670229.
 15.6000004   7671766.
 15.79   7673324.5
 15.9799995   7674878.
 16.1700001   7676407.5
 16.3600006   7677915.
 16.5499992   7679427.
 16.7399998   7680959.
 16.9300003   7682512.
 17.1200008   7684060.5
 17.3099995   7685586.5
 17.5   7687089.
 17.6900005   7688592.5
 17.8799992   7690118.5
 18.0699997   7691667.5
 18.2600002   7693218.5
 18.4500008   7694751.
 18.6399994   7696261.
 18.8299999   7697768.5
 19.0200005   7699297.5
 19.2099991   7700851.5
 19.3999996   7702412.
 19.5900002   7703952.5
 19.7800007   7705467.5
 19.9699993   7706975.
 20.1599998   7708504.5
 20.3500004   7710061.
 20.5400009   7711627.
 20.7299995   7713176.5
 20.9200001   7714697.5
 21.1100006   7716214.
 21.2999992   7717753.
 21.4899998   7719320.5
 21.6800003   7720895.5
 21.8700008   7722455.
 22.0599995   7723985.
 22.25   7725505.
 22.4400005   7727040.
 22.6299992   7728603.
 22.8199997   7730175.5
 23.0100002   7731735.5
 23.2000008   7733273.
 23.3899994   7734800.
 23.5799999   7736340.5
 23.7700005   7737906.5
 23.9599991   7739486.
 24.1499996   7741051.
 24.3400002   7742586.5
 24.5300007   7744103.
 24.7199993   7745625.
 24.9099998   7747170.5
 25.1000004   7748727.5
 25.2900009   7750273.
 25.4799995   7751796.
 25.6700001   7753299.
 25.8600006   7754808.
 26.0499992   7756340.
 26.2399998   7757890.
 26.4300003   7759433.5
 26.6200008   7760954.
 26.8099995   7762454.5
