 -30.   -140641.297
 -29.8099995   -140727.484
 -29.6200008   -140854.859
 -29.4300003   -140997.031
 -29.2399998   -141126.5
 -29.0499992   -141220.547
 -28.8600006   -141277.797
 -28.6700001   -141302.563
 -28.4799995   -141315.969
 -28.2900009   -141333.516
 -28.1000004   -141373.297
 -27.9099998   -141439.5
 -27.7199993   -141531.906
 -27.5300007   -141638.453
 -27.3400002   -141746.516
 -27.1499996   -141842.719
 -26.9599991   -141922.984
 -26.7700005   -141987.844
 -26.5799999   -142042.563
 -26.3899994   -142095.156
 -26.2000008   -142146.719
 -26.0100002   -142204.813
 -25.8199997   -142270.688
 -25.6299992   -142345.563
 -25.4400005   -142428.406
 -25.25   -142519.906
 -25.0599995   -142617.484
 -24.8700008   -142717.859
 -24.6800003   -142813.047
 -24.4899998   -142896.484
 -24.2999992   -142962.297
 -24.1100006   -143006.313
 -23.9200001   -143029.125
 -23.7299995   -143044.109
 -23.5400009   -143057.766
 -23.3500004   -143087.859
 -23.1599998   -143142.484
 -22.9699993   -143223.172
 -22.7800007   -143322.156
 -22.5900002   -143425.641
 -22.3999996   -143512.297
 -22.2099991   -143569.734
 -22.0200005   -143589.578
 -21.8299999   -143575.797
 -21.6399994   -143538.313
 -21.4500008   -143501.234
 -21.2600002   -143486.656
 -21.0699997   -143509.719
 -20.8799992   -143572.703
 -20.6900005   -143666.875
 -20.5   -143772.875
 -20.3099995   -143865.281
 -20.1200008   -143925.719
 -19.9300003   -143945.563
 -19.7399998   -143926.203
 -19.5499992   -143886.
 -19.3600006   -143847.156
 -19.1700001   -143831.563
 -18.9799995   -143852.094
 -18.7900009   -143910.172
 -18.6000004   -143992.672
 -18.4099998   -144080.703
 -18.2199993   -144151.172
 -18.0300007   -144189.125
 -17.8400002   -144186.422
 -17.6499996   -144150.344
 -17.4599991   -144095.016
 -17.2700005   -144039.063
 -17.0799999   -143999.969
 -16.8899994   -143990.797
 -16.7000008   -144013.297
 -16.5100002   -144063.375
 -16.3199997   -144128.906
 -16.1299992   -144193.156
 -15.9399996   -144242.
 -15.75   -144263.813
 -15.5600004   -144256.188
 -15.3699999   -144221.609
 -15.1800003   -144169.703
 -14.9899998   -144118.25
 -14.8000002   -144076.828
 -14.6099997   -144058.625
 -14.4200001   -144070.844
 -14.2299995   -144104.516
 -14.04   -144152.813
 -13.8500004   -144193.813
 -13.6599998   -144215.328
 -13.4700003   -144204.609
 -13.2799997   -144159.516
 -13.0900002   -144090.734
 -12.8999996   -144015.063
 -12.71   -143951.672
 -12.5200005   -143915.016
 -12.3299999   -143917.063
 -12.1400003   -143953.359
 -11.9499998   -144011.578
 -11.7600002   -144074.391
 -11.5699997   -144121.969
 -11.3800001   -144137.641
 -11.1899996   -144118.266
 -11.   -144071.344
 -10.8100004   -144010.984
 -10.6199999   -143957.641
 -10.4300003   -143929.
 -10.2399998   -143934.859
 -10.0500002   -143974.438
 -9.85999966   -144040.031
 -9.67000008   -144112.406
 -9.47999954   -144172.188
 -9.28999996   -144202.344
 -9.10000038   -144193.703
 -8.90999985   -144148.281
 -8.72000027   -144079.141
 -8.52999973   -144003.063
 -8.34000015   -143940.5
 -8.14999962   -143907.453
 -7.96000004   -143905.156
 -7.76999998   -143933.109
 -7.57999992   -143976.
 -7.38999987   -144017.688
 -7.19999981   -144043.078
 -7.01000023   -144041.875
 -6.82000017   -144013.922
 -6.63000011   -143966.141
 -6.44000006   -143910.703
 -6.25   -143866.141
 -6.05999994   -143842.047
 -5.86999989   -143847.844
 -5.67999983   -143880.563
 -5.48999977   -143936.734
 -5.30000019   -144000.406
 -5.11000013   -144059.969
 -4.92000008   -144101.406
 -4.73000002   -144120.375
 -4.53999996   -144111.406
 -4.3499999   -144082.031
 -4.15999985   -144040.469
 -3.97000003   -143998.359
 -3.77999997   -143972.344
 -3.58999991   -143969.094
 -3.4000001   -143991.313
 -3.21000004   -144033.703
 -3.01999998   -144082.531
 -2.82999992   -144121.031
 -2.6400001   -144134.078
 -2.45000005   -144114.781
 -2.25999999   -144060.047
 -2.06999993   -143981.063
 -1.88   -143898.859
 -1.69000006   -143830.188
 -1.5   -143797.203
 -1.30999994   -143809.547
 -1.12   -143863.563
 -0.930000007   -143943.109
 -0.74000001   -144026.875
 -0.550000012   -144090.922
 -0.360000014   -144116.609
 -0.170000002   -144101.156
 1.999999955E-2   -144051.563
 0.209999993   -143985.453
 0.400000006   -143925.375
 0.589999974   -143891.594
 0.779999971   -143890.906
 0.970000029   -143922.75
 1.15999997   -143971.844
 1.35000002   -144016.031
 1.53999996   -144039.719
 1.73000002   -144032.109
 1.91999996   -143996.453
 2.1099999   -143940.688
 2.29999995   -143880.813
 2.49000001   -143838.359
 2.68000007   -143822.688
 2.86999989   -143842.672
 3.05999994   -143891.094
 3.25   -143953.578
 3.44000006   -144016.953
 3.63000011   -144066.703
 3.81999993   -144091.734
 4.01000023   -144089.75
 4.19999981   -144067.
 4.38999987   -144030.109
 4.57999992   -143989.938
 4.76999998   -143959.578
 4.96000004   -143940.859
 5.1500001   -143939.563
 5.34000015   -143955.219
 5.53000021   -143981.109
 5.71999979   -144011.141
 5.90999985   -144032.031
 6.0999999   -144043.719
 6.28999996   -144039.094
 6.48000002   -144020.234
 6.67000008   -143992.344
 6.86000013   -143964.094
 7.05000019   -143944.781
 7.23999977   -143944.859
 7.42999983   -143971.547
 7.61999989   -144018.844
 7.80999994   -144083.5
 8.   -144149.219
 8.18999958   -144202.969
 8.38000011   -144234.609
 8.56999969   -144239.313
 8.76000023   -144221.
 8.94999981   -144185.047
 9.14000034   -144141.859
 9.32999992   -144103.031
 9.52000046   -144076.266
 9.71000004   -144064.766
 9.89999962   -144063.484
 10.0900002   -144067.109
 10.2799997   -144070.219
 10.4700003   -144064.438
 10.6599998   -144053.094
 10.8500004   -144035.172
 11.04   -144013.781
 11.2299995   -143996.438
 11.4200001   -143986.344
 11.6099997   -143989.75
 11.8000002   -144007.078
 11.9899998   -144038.438
 12.1800003   -144078.844
 12.3699999   -144121.453
 12.5600004   -144153.359
 12.75   -144169.391
 12.9399996   -144166.516
 13.1300001   -144141.844
 13.3199997   -144100.828
 13.5100002   -144046.109
 13.6999998   -143991.359
 13.8900003   -143943.219
 14.0799999   -143912.078
 14.2700005   -143899.484
 14.46   -143906.594
 14.6499996   -143926.094
 14.8400002   -143947.719
 15.0299997   -143967.719
 15.2200003   -143979.047
 15.4099998   -143982.891
 15.6000004   -143980.125
 15.79   -143975.563
 15.9799995   -143974.078
 16.1700001   -143982.484
 16.3600006   -144002.672
 16.5499992   -144034.125
 16.7399998   -144073.969
 16.9300003   -144115.109
 17.1200008   -144150.906
 17.3099995   -144174.297
 17.5   -144181.078
 17.6900005   -144169.25
 17.8799992   -144140.109
 18.0699997   -144099.234
 18.2600002   -144061.734
 18.4500008   -144042.406
 18.6399994   -144052.266
 18.8299999   -144098.938
 19.0200005   -144170.531
 19.2099991   -144253.406
 19.3999996   -144328.438
 19.5900002   -144370.25
 19.7800007   -144374.234
 19.9699993   -144339.859
 20.1599998   -144282.156
 20.3500004   -144224.922
 20.5400009   -144194.391
 20.7299995   -144200.422
 20.9200001   -144246.766
 21.1100006   -144313.516
 21.2999992   -144379.688
 21.4899998   -144415.547
 21.6800003   -144409.438
 21.8700008   -144359.281
 22.0599995   -144278.641
 22.25   -144186.766
 22.4400005   -144109.641
 22.6299992   -144068.156
 22.8199997   -144064.875
 23.0100002   -144099.766
 23.2000008   -144156.656
 23.3899994   -144216.
 23.5799999   -144259.766
 23.7700005   -144278.063
 23.9599991   -144268.703
 24.1499996   -144237.109
 24.3400002   -144195.844
 24.5300007   -144159.219
 24.7199993   -144136.
 24.9099998   -144136.531
 25.1000004   -144157.984
 25.2900009   -144196.656
 25.4799995   -144241.484
 25.6700001   -144281.094
 25.8600006   -144308.281
 26.0499992   -144316.875
 26.2399998   -144308.828
 26.4300003   -144289.672
 26.6200008   -144265.047
 26.8099995   -144244.344
