 -30.   -3853636.
 -29.8099995   -3854426.25
 -29.6200008   -3855221.
 -29.4300003   -3856024.25
 -29.2399998   -3856833.75
 -29.0499992   -3857647.5
 -28.8600006   -3858461.
 -28.6700001   -3859268.75
 -28.4799995   -3860062.75
 -28.2900009   -3860850.75
 -28.1000004   -3861637.5
 -27.9099998   -3862431.25
 -27.7199993   -3863240.75
 -27.5300007   -3864064.75
 -27.3400002   -3864897.5
 -27.1499996   -3865727.75
 -26.9599991   -3866546.75
 -26.7700005   -3867350.75
 -26.5799999   -3868141.25
 -26.3899994   -3868924.75
 -26.2000008   -3869709.
 -26.0100002   -3870502.25
 -25.8199997   -3871302.25
 -25.6299992   -3872105.75
 -25.4400005   -3872908.
 -25.25   -3873707.5
 -25.0599995   -3874503.5
 -24.8700008   -3875303.75
 -24.6800003   -3876107.25
 -24.4899998   -3876913.5
 -24.2999992   -3877723.
 -24.1100006   -3878525.75
 -23.9200001   -3879319.5
 -23.7299995   -3880106.
 -23.5400009   -3880889.75
 -23.3500004   -3881679.25
 -23.1599998   -3882481.25
 -22.9699993   -3883301.5
 -22.7800007   -3884131.25
 -22.5900002   -3884963.25
 -22.3999996   -3885784.5
 -22.2099991   -3886585.5
 -22.0200005   -3887368.
 -21.8299999   -3888140.
 -21.6399994   -3888914.
 -21.4500008   -3889699.75
 -21.2600002   -3890507.25
 -21.0699997   -3891331.
 -20.8799992   -3892164.5
 -20.6900005   -3892993.5
 -20.5   -3893810.
 -20.3099995   -3894610.
 -20.1200008   -3895395.
 -19.9300003   -3896177.
 -19.7399998   -3896962.5
 -19.5499992   -3897761.25
 -19.3600006   -3898570.5
 -19.1700001   -3899388.5
 -18.9799995   -3900206.
 -18.7900009   -3901021.25
 -18.6000004   -3901828.25
 -18.4099998   -3902629.5
 -18.2199993   -3903425.5
 -18.0300007   -3904220.25
 -17.8400002   -3905012.75
 -17.6499996   -3905800.
 -17.4599991   -3906582.5
 -17.2700005   -3907362.5
 -17.0799999   -3908143.75
 -16.8899994   -3908933.5
 -16.7000008   -3909734.
 -16.5100002   -3910545.5
 -16.3199997   -3911365.
 -16.1299992   -3912182.25
 -15.9399996   -3912992.25
 -15.75   -3913788.25
 -15.5600004   -3914576.5
 -15.3699999   -3915363.75
 -15.1800003   -3916161.5
 -14.9899998   -3916975.
 -14.8000002   -3917805.5
 -14.6099997   -3918646.25
 -14.4200001   -3919490.
 -14.2299995   -3920323.25
 -14.04   -3921143.25
 -13.8500004   -3921951.75
 -13.6599998   -3922755.
 -13.4700003   -3923560.75
 -13.2799997   -3924372.
 -13.0900002   -3925192.25
 -12.8999996   -3926012.75
 -12.71   -3926828.75
 -12.5200005   -3927635.75
 -12.3299999   -3928434.5
 -12.1400003   -3929232.5
 -11.9499998   -3930038.
 -11.7600002   -3930853.75
 -11.5699997   -3931682.
 -11.3800001   -3932516.25
 -11.1899996   -3933346.25
 -11.   -3934164.25
 -10.8100004   -3934966.
 -10.6199999   -3935751.75
 -10.4300003   -3936527.5
 -10.2399998   -3937305.5
 -10.0500002   -3938090.5
 -9.85999966   -3938886.
 -9.67000008   -3939688.5
 -9.47999954   -3940493.5
 -9.28999996   -3941297.5
 -9.10000038   -3942092.5
 -8.90999985   -3942878.5
 -8.72000027   -3943654.
 -8.52999973   -3944419.5
 -8.34000015   -3945175.75
 -8.14999962   -3945928.75
 -7.96000004   -3946678.75
 -7.76999998   -3947434.75
 -7.57999992   -3948201.75
 -7.38999987   -3948978.75
 -7.19999981   -3949768.25
 -7.01000023   -3950564.25
 -6.82000017   -3951361.75
 -6.63000011   -3952148.5
 -6.44000006   -3952923.25
 -6.25   -3953684.25
 -6.05999994   -3954434.5
 -5.86999989   -3955182.5
 -5.67999983   -3955937.5
 -5.48999977   -3956707.
 -5.30000019   -3957494.5
 -5.11000013   -3958300.
 -4.92000008   -3959117.75
 -4.73000002   -3959941.25
 -4.53999996   -3960756.75
 -4.3499999   -3961556.5
 -4.15999985   -3962337.75
 -3.97000003   -3963099.5
 -3.77999997   -3963851.75
 -3.58999991   -3964604.25
 -3.4000001   -3965368.
 -3.21000004   -3966153.75
 -3.01999998   -3966964.5
 -2.82999992   -3967796.5
 -2.6400001   -3968637.25
 -2.45000005   -3969473.75
 -2.25999999   -3970291.25
 -2.06999993   -3971083.25
 -1.88   -3971851.
 -1.69000006   -3972603.5
 -1.5   -3973352.75
 -1.30999994   -3974111.5
 -1.12   -3974888.25
 -0.930000007   -3975686.75
 -0.74000001   -3976506.25
 -0.550000012   -3977339.
 -0.360000014   -3978173.75
 -0.170000002   -3978995.75
 1.999999955E-2   -3979795.5
 0.209999993   -3980568.25
 0.400000006   -3981320.25
 0.589999974   -3982064.75
 0.779999971   -3982813.
 0.970000029   -3983576.5
 1.15999997   -3984360.75
 1.35000002   -3985165.75
 1.53999996   -3985985.75
 1.73000002   -3986808.5
 1.91999996   -3987622.75
 2.1099999   -3988417.5
 2.29999995   -3989187.
 2.49000001   -3989937.25
 2.68000007   -3990677.75
 2.86999989   -3991422.
 3.05999994   -3992180.
 3.25   -3992957.25
 3.44000006   -3993752.25
 3.63000011   -3994561.
 3.81999993   -3995376.75
 4.01000023   -3996191.25
 4.19999981   -3996996.25
 4.38999987   -3997781.25
 4.57999992   -3998540.25
 4.76999998   -3999279.75
 4.96000004   -4000009.25
 5.1500001   -4000743.5
 5.34000015   -4001495.
 5.53000021   -4002270.25
 5.71999979   -4003063.75
 5.90999985   -4003868.
 6.0999999   -4004671.5
 6.28999996   -4005463.5
 6.48000002   -4006238.
 6.67000008   -4006991.5
 6.86000013   -4007728.25
 7.05000019   -4008458.5
 7.23999977   -4009189.5
 7.42999983   -4009936.75
 7.61999989   -4010699.75
 7.80999994   -4011478.75
 8.   -4012264.5
 8.18999958   -4013048.75
 8.38000011   -4013826.75
 8.56999969   -4014594.25
 8.76000023   -4015349.25
 8.94999981   -4016093.75
 9.14000034   -4016832.5
 9.32999992   -4017567.75
 9.52000046   -4018310.5
 9.71000004   -4019067.25
 9.89999962   -4019841.5
 10.0900002   -4020629.75
 10.2799997   -4021425.75
 10.4700003   -4022222.5
 10.6599998   -4023011.5
 10.8500004   -4023791.25
 11.04   -4024559.5
 11.2299995   -4025320.
 11.4200001   -4026076.5
 11.6099997   -4026831.
 11.8000002   -4027593.5
 11.9899998   -4028366.25
 12.1800003   -4029151.
 12.3699999   -4029946.5
 12.5600004   -4030743.25
 12.75   -4031536.75
 12.9399996   -4032319.
 13.1300001   -4033090.
 13.3199997   -4033848.75
 13.5100002   -4034602.75
 13.6999998   -4035351.25
 13.8900003   -4036100.5
 14.0799999   -4036855.75
 14.2700005   -4037613.5
 14.46   -4038379.25
 14.6499996   -4039148.25
 14.8400002   -4039914.75
 15.0299997   -4040679.75
 15.2200003   -4041435.5
 15.4099998   -4042182.
 15.6000004   -4042919.5
 15.79   -4043647.
 15.9799995   -4044370.5
 16.1700001   -4045091.75
 16.3600006   -4045821.25
 16.5499992   -4046564.
 16.7399998   -4047323.5
 16.9300003   -4048100.75
 17.1200008   -4048890.5
 17.3099995   -4049676.25
 17.5   -4050455.5
 17.6900005   -4051217.
 17.8799992   -4051965.75
 18.0699997   -4052705.
 18.2600002   -4053444.
 18.4500008   -4054188.75
 18.6399994   -4054943.25
 18.8299999   -4055710.75
 19.0200005   -4056491.5
 19.2099991   -4057281.25
 19.3999996   -4058075.5
 19.5900002   -4058867.25
 19.7800007   -4059649.5
 19.9699993   -4060417.25
 20.1599998   -4061170.25
 20.3500004   -4061911.25
 20.5400009   -4062650.25
 20.7299995   -4063396.
 20.9200001   -4064156.25
 21.1100006   -4064932.75
 21.2999992   -4065725.
 21.4899998   -4066524.75
 21.6800003   -4067318.
 21.8700008   -4068093.
 22.0599995   -4068841.
 22.25   -4069566.
 22.4400005   -4070278.
 22.6299992   -4070989.25
 22.8199997   -4071712.75
 23.0100002   -4072449.
 23.2000008   -4073199.25
 23.3899994   -4073953.5
 23.5799999   -4074705.5
 23.7700005   -4075450.
 23.9599991   -4076189.5
 24.1499996   -4076922.75
 24.3400002   -4077651.5
 24.5300007   -4078374.5
 24.7199993   -4079090.
 24.9099998   -4079804.5
 25.1000004   -4080520.25
 25.2900009   -4081246.
 25.4799995   -4081989.25
 25.6700001   -4082747.25
 25.8600006   -4083518.5
 26.0499992   -4084291.25
 26.2399998   -4085051.5
 26.4300003   -4085786.5
 26.6200008   -4086499.75
 26.8099995   -4087197.
