 -30.   10341586.
 -29.8099995   10343696.
 -29.6200008   10345806.
 -29.4300003   10347916.
 -29.2399998   10350027.
 -29.0499992   10352144.
 -28.8600006   10354264.
 -28.6700001   10356386.
 -28.4799995   10358503.
 -28.2900009   10360616.
 -28.1000004   10362725.
 -27.9099998   10364833.
 -27.7199993   10366944.
 -27.5300007   10369057.
 -27.3400002   10371171.
 -27.1499996   10373286.
 -26.9599991   10375401.
 -26.7700005   10377520.
 -26.5799999   10379641.
 -26.3899994   10381760.
 -26.2000008   10383873.
 -26.0100002   10385979.
 -25.8199997   10388084.
 -25.6299992   10390197.
 -25.4400005   10392320.
 -25.25   10394448.
 -25.0599995   10396572.
 -24.8700008   10398693.
 -24.6800003   10400810.
 -24.4899998   10402932.
 -24.2999992   10405062.
 -24.1100006   10407194.
 -23.9200001   10409316.
 -23.7299995   10411433.
 -23.5400009   10413545.
 -23.3500004   10415664.
 -23.1599998   10417789.
 -22.9699993   10419912.
 -22.7800007   10422024.
 -22.5900002   10424124.
 -22.3999996   10426219.
 -22.2099991   10428319.
 -22.0200005   10430424.
 -21.8299999   10432530.
 -21.6399994   10434624.
 -21.4500008   10436708.
 -21.2600002   10438794.
 -21.0699997   10440894.
 -20.8799992   10443007.
 -20.6900005   10445128.
 -20.5   10447238.
 -20.3099995   10449338.
 -20.1200008   10451433.
 -19.9300003   10453538.
 -19.7399998   10455651.
 -19.5499992   10457766.
 -19.3600006   10459872.
 -19.1700001   10461971.
 -18.9799995   10464071.
 -18.7900009   10466187.
 -18.6000004   10468317.
 -18.4099998   10470454.
 -18.2199993   10472574.
 -18.0300007   10474676.
 -17.8400002   10476772.
 -17.6499996   10478875.
 -17.4599991   10480988.
 -17.2700005   10483106.
 -17.0799999   10485213.
 -16.8899994   10487312.
 -16.7000008   10489409.
 -16.5100002   10491519.
 -16.3199997   10493642.
 -16.1299992   10495772.
 -15.9399996   10497896.
 -15.75   10500010.
 -15.5600004   10502119.
 -15.3699999   10504235.
 -15.1800003   10506363.
 -14.9899998   10508499.
 -14.8000002   10510628.
 -14.6099997   10512751.
 -14.4200001   10514869.
 -14.2299995   10516992.
 -14.04   10519124.
 -13.8500004   10521261.
 -13.6599998   10523391.
 -13.4700003   10525509.
 -13.2799997   10527616.
 -13.0900002   10529723.
 -12.8999996   10531834.
 -12.71   10533954.
 -12.5200005   10536077.
 -12.3299999   10538199.
 -12.1400003   10540317.
 -11.9499998   10542436.
 -11.7600002   10544560.
 -11.5699997   10546689.
 -11.3800001   10548819.
 -11.1899996   10550943.
 -11.   10553065.
 -10.8100004   10555189.
 -10.6199999   10557321.
 -10.4300003   10559463.
 -10.2399998   10561610.
 -10.0500002   10563750.
 -9.85999966   10565881.
 -9.67000008   10568003.
 -9.47999954   10570123.
 -9.28999996   10572247.
 -9.10000038   10574379.
 -8.90999985   10576514.
 -8.72000027   10578649.
 -8.52999973   10580782.
 -8.34000015   10582919.
 -8.14999962   10585068.
 -7.96000004   10587225.
 -7.76999998   10589385.
 -7.57999992   10591534.
 -7.38999987   10593676.
 -7.19999981   10595817.
 -7.01000023   10597966.
 -6.82000017   10600123.
 -6.63000011   10602281.
 -6.44000006   10604432.
 -6.25   10606572.
 -6.05999994   10608721.
 -5.86999989   10610880.
 -5.67999983   10613055.
 -5.48999977   10615233.
 -5.30000019   10617404.
 -5.11000013   10619566.
 -4.92000008   10621722.
 -4.73000002   10623883.
 -4.53999996   10626044.
 -4.3499999   10628193.
 -4.15999985   10630330.
 -3.97000003   10632454.
 -3.77999997   10634580.
 -3.58999991   10636714.
 -3.4000001   10638859.
 -3.21000004   10641004.
 -3.01999998   10643139.
 -2.82999992   10645264.
 -2.6400001   10647389.
 -2.45000005   10649520.
 -2.25999999   10651654.
 -2.06999993   10653786.
 -1.88   10655913.
 -1.69000006   10658036.
 -1.5   10660160.
 -1.30999994   10662292.
 -1.12   10664428.
 -0.930000007   10666562.
 -0.74000001   10668688.
 -0.550000012   10670808.
 -0.360000014   10672932.
 -0.170000002   10675065.
 1.999999955E-2   10677204.
 0.209999993   10679345.
 0.400000006   10681485.
 0.589999974   10683620.
 0.779999971   10685763.
 0.970000029   10687913.
 1.15999997   10690062.
 1.35000002   10692207.
 1.53999996   10694344.
 1.73000002   10696484.
 1.91999996   10698626.
 2.1099999   10700774.
 2.29999995   10702923.
 2.49000001   10705066.
 2.68000007   10707200.
 2.86999989   10709328.
 3.05999994   10711453.
 3.25   10713574.
 3.44000006   10715689.
 3.63000011   10717794.
 3.81999993   10719902.
 4.01000023   10722021.
 4.19999981   10724149.
 4.38999987   10726284.
 4.57999992   10728419.
 4.76999998   10730549.
 4.96000004   10732678.
 5.1500001   10734814.
 5.34000015   10736955.
 5.53000021   10739101.
 5.71999979   10741242.
 5.90999985   10743384.
 6.0999999   10745530.
 6.28999996   10747685.
 6.48000002   10749845.
 6.67000008   10751999.
 6.86000013   10754141.
 7.05000019   10756272.
 7.23999977   10758404.
 7.42999983   10760548.
 7.61999989   10762702.
 7.80999994   10764852.
 8.   10766987.
 8.18999958   10769107.
 8.38000011   10771224.
 8.56999969   10773350.
 8.76000023   10775480.
 8.94999981   10777606.
 9.14000034   10779716.
 9.32999992   10781822.
 9.52000046   10783935.
 9.71000004   10786074.
 9.89999962   10788229.
 10.0900002   10790379.
 10.2799997   10792516.
 10.4700003   10794640.
 10.6599998   10796773.
 10.8500004   10798922.
 11.04   10801081.
 11.2299995   10803232.
 11.4200001   10805359.
 11.6099997   10807469.
 11.8000002   10809584.
 11.9899998   10811718.
 12.1800003   10813865.
 12.3699999   10816010.
 12.5600004   10818135.
 12.75   10820245.
 12.9399996   10822370.
 13.1300001   10824518.
 13.3199997   10826687.
 13.5100002   10828852.
 13.6999998   10830998.
 13.8900003   10833123.
 14.0799999   10835252.
 14.2700005   10837398.
 14.46   10839560.
 14.6499996   10841715.
 14.8400002   10843849.
 15.0299997   10845967.
 15.2200003   10848090.
 15.4099998   10850230.
 15.6000004   10852379.
 15.79   10854512.
 15.9799995   10856615.
 16.1700001   10858697.
 16.3600006   10860783.
 16.5499992   10862891.
 16.7399998   10865017.
 16.9300003   10867146.
 17.1200008   10869260.
 17.3099995   10871363.
 17.5   10873470.
 17.6900005   10875595.
 17.8799992   10877733.
 18.0699997   10879865.
 18.2600002   10881981.
 18.4500008   10884091.
 18.6399994   10886212.
 18.8299999   10888346.
 19.0200005   10890488.
 19.2099991   10892620.
 19.3999996   10894735.
 19.5900002   10896840.
 19.7800007   10898950.
 19.9699993   10901077.
 20.1599998   10903213.
 20.3500004   10905347.
 20.5400009   10907475.
 20.7299995   10909601.
 20.9200001   10911733.
 21.1100006   10913876.
 21.2999992   10916017.
 21.4899998   10918148.
 21.6800003   10920269.
 21.8700008   10922388.
 22.0599995   10924515.
 22.25   10926650.
 22.4400005   10928788.
 22.6299992   10930920.
 22.8199997   10933047.
 23.0100002   10935178.
 23.2000008   10937316.
 23.3899994   10939460.
 23.5799999   10941595.
 23.7700005   10943720.
 23.9599991   10945839.
 24.1499996   10947961.
 24.3400002   10950092.
 24.5300007   10952224.
 24.7199993   10954346.
 24.9099998   10956455.
 25.1000004   10958558.
 25.2900009   10960663.
 25.4799995   10962771.
 25.6700001   10964880.
 25.8600006   10966986.
 26.0499992   10969090.
 26.2399998   10971200.
 26.4300003   10973324.
 26.6200008   10975458.
 26.8099995   10977590.
