 -30.   1618849.63
 -29.8099995   1619183.38
 -29.6200008   1619520.25
 -29.4300003   1619859.13
 -29.2399998   1620197.75
 -29.0499992   1620534.
 -28.8600006   1620869.5
 -28.6700001   1621201.5
 -28.4799995   1621533.38
 -28.2900009   1621865.75
 -28.1000004   1622198.38
 -27.9099998   1622533.88
 -27.7199993   1622872.63
 -27.5300007   1623213.
 -27.3400002   1623553.13
 -27.1499996   1623895.25
 -26.9599991   1624234.5
 -26.7700005   1624573.13
 -26.5799999   1624906.88
 -26.3899994   1625238.38
 -26.2000008   1625569.
 -26.0100002   1625898.38
 -25.8199997   1626230.63
 -25.6299992   1626562.5
 -25.4400005   1626897.63
 -25.25   1627235.63
 -25.0599995   1627575.25
 -24.8700008   1627915.
 -24.6800003   1628250.88
 -24.4899998   1628583.38
 -24.2999992   1628913.88
 -24.1100006   1629241.
 -23.9200001   1629566.63
 -23.7299995   1629890.38
 -23.5400009   1630218.13
 -23.3500004   1630548.13
 -23.1599998   1630879.25
 -22.9699993   1631213.
 -22.7800007   1631547.25
 -22.5900002   1631878.13
 -22.3999996   1632206.5
 -22.2099991   1632530.38
 -22.0200005   1632851.25
 -21.8299999   1633170.63
 -21.6399994   1633487.63
 -21.4500008   1633806.63
 -21.2600002   1634129.63
 -21.0699997   1634453.88
 -20.8799992   1634779.63
 -20.6900005   1635106.75
 -20.5   1635430.5
 -20.3099995   1635753.25
 -20.1200008   1636070.13
 -19.9300003   1636384.13
 -19.7399998   1636696.88
 -19.5499992   1637007.75
 -19.3600006   1637319.13
 -19.1700001   1637633.13
 -18.9799995   1637951.5
 -18.7900009   1638274.88
 -18.6000004   1638601.88
 -18.4099998   1638929.63
 -18.2199993   1639256.75
 -18.0300007   1639580.25
 -17.8400002   1639898.63
 -17.6499996   1640213.88
 -17.4599991   1640525.38
 -17.2700005   1640837.38
 -17.0799999   1641152.25
 -16.8899994   1641471.5
 -16.7000008   1641795.88
 -16.5100002   1642124.
 -16.3199997   1642453.13
 -16.1299992   1642780.
 -15.9399996   1643102.
 -15.75   1643418.5
 -15.5600004   1643729.5
 -15.3699999   1644038.38
 -15.1800003   1644348.25
 -14.9899998   1644660.63
 -14.8000002   1644978.63
 -14.6099997   1645303.5
 -14.4200001   1645632.63
 -14.2299995   1645963.
 -14.04   1646292.38
 -13.8500004   1646616.25
 -13.6599998   1646934.5
 -13.4700003   1647247.75
 -13.2799997   1647553.88
 -13.0900002   1647859.38
 -12.8999996   1648167.5
 -12.71   1648480.5
 -12.5200005   1648799.25
 -12.3299999   1649124.63
 -12.1400003   1649453.13
 -11.9499998   1649780.25
 -11.7600002   1650105.38
 -11.5699997   1650423.63
 -11.3800001   1650733.63
 -11.1899996   1651037.75
 -11.   1651341.25
 -10.8100004   1651644.88
 -10.6199999   1651954.5
 -10.4300003   1652272.88
 -10.2399998   1652596.5
 -10.0500002   1652923.63
 -9.85999966   1653251.13
 -9.67000008   1653575.
 -9.47999954   1653891.38
 -9.28999996   1654200.5
 -9.10000038   1654506.5
 -8.90999985   1654808.5
 -8.72000027   1655114.38
 -8.52999973   1655424.75
 -8.34000015   1655739.75
 -8.14999962   1656062.
 -7.96000004   1656387.63
 -7.76999998   1656712.63
 -7.57999992   1657033.
 -7.38999987   1657350.63
 -7.19999981   1657663.75
 -7.01000023   1657973.38
 -6.82000017   1658281.5
 -6.63000011   1658590.5
 -6.44000006   1658902.38
 -6.25   1659217.63
 -6.05999994   1659539.13
 -5.86999989   1659862.
 -5.67999983   1660185.63
 -5.48999977   1660507.63
 -5.30000019   1660825.88
 -5.11000013   1661136.63
 -4.92000008   1661444.75
 -4.73000002   1661749.38
 -4.53999996   1662053.13
 -4.3499999   1662360.38
 -4.15999985   1662672.38
 -3.97000003   1662990.88
 -3.77999997   1663315.75
 -3.58999991   1663642.13
 -3.4000001   1663969.
 -3.21000004   1664290.25
 -3.01999998   1664604.
 -2.82999992   1664910.88
 -2.6400001   1665211.88
 -2.45000005   1665512.63
 -2.25999999   1665817.38
 -2.06999993   1666125.63
 -1.88   1666441.88
 -1.69000006   1666762.88
 -1.5   1667084.75
 -1.30999994   1667405.38
 -1.12   1667718.75
 -0.930000007   1668024.75
 -0.74000001   1668326.5
 -0.550000012   1668625.13
 -0.360000014   1668925.5
 -0.170000002   1669231.63
 1.999999955E-2   1669543.38
 0.209999993   1669862.38
 0.400000006   1670184.
 0.589999974   1670502.63
 0.779999971   1670819.63
 0.970000029   1671130.88
 1.15999997   1671435.38
 1.35000002   1671739.38
 1.53999996   1672041.5
 1.73000002   1672346.
 1.91999996   1672653.25
 2.1099999   1672963.25
 2.29999995   1673277.5
 2.49000001   1673591.63
 2.68000007   1673903.38
 2.86999989   1674212.63
 3.05999994   1674517.25
 3.25   1674819.88
 3.44000006   1675119.5
 3.63000011   1675418.13
 3.81999993   1675717.13
 4.01000023   1676017.5
 4.19999981   1676319.88
 4.38999987   1676625.5
 4.57999992   1676933.88
 4.76999998   1677246.25
 4.96000004   1677558.5
 5.1500001   1677869.75
 5.34000015   1678178.63
 5.53000021   1678484.75
 5.71999979   1678786.63
 5.90999985   1679081.88
 6.0999999   1679376.38
 6.28999996   1679670.88
 6.48000002   1679970.63
 6.67000008   1680273.13
 6.86000013   1680580.13
 7.05000019   1680889.25
 7.23999977   1681199.88
 7.42999983   1681505.63
 7.61999989   1681807.88
 7.80999994   1682105.38
 8.   1682396.25
 8.18999958   1682686.63
 8.38000011   1682978.63
 8.56999969   1683276.88
 8.76000023   1683579.
 8.94999981   1683887.88
 9.14000034   1684199.13
 9.32999992   1684509.88
 9.52000046   1684817.63
 9.71000004   1685118.63
 9.89999962   1685414.13
 10.0900002   1685704.75
 10.2799997   1685995.5
 10.4700003   1686288.63
 10.6599998   1686588.25
 10.8500004   1686891.88
 11.04   1687204.13
 11.2299995   1687517.13
 11.4200001   1687827.88
 11.6099997   1688136.
 11.8000002   1688435.88
 11.9899998   1688730.88
 12.1800003   1689018.38
 12.3699999   1689306.
 12.5600004   1689595.25
 12.75   1689888.75
 12.9399996   1690188.
 13.1300001   1690492.13
 13.3199997   1690800.13
 13.5100002   1691109.38
 13.6999998   1691417.63
 13.8900003   1691720.63
 14.0799999   1692021.
 14.2700005   1692315.63
 14.46   1692607.75
 14.6499996   1692899.13
 14.8400002   1693195.5
 15.0299997   1693493.25
 15.2200003   1693796.13
 15.4099998   1694105.63
 15.6000004   1694413.5
 15.79   1694723.38
 15.9799995   1695029.13
 16.1700001   1695329.25
 16.3600006   1695624.5
 16.5499992   1695917.38
 16.7399998   1696206.13
 16.9300003   1696498.88
 17.1200008   1696794.38
 17.3099995   1697093.63
 17.5   1697396.25
 17.6900005   1697699.25
 17.8799992   1698000.75
 18.0699997   1698299.5
 18.2600002   1698595.13
 18.4500008   1698887.88
 18.6399994   1699178.38
 18.8299999   1699470.38
 19.0200005   1699764.88
 19.2099991   1700060.5
 19.3999996   1700358.25
 19.5900002   1700655.5
 19.7800007   1700950.75
 19.9699993   1701244.13
 20.1599998   1701535.38
 20.3500004   1701824.38
 20.5400009   1702112.25
 20.7299995   1702399.38
 20.9200001   1702685.63
 21.1100006   1702974.25
 21.2999992   1703264.
 21.4899998   1703559.
 21.6800003   1703855.63
 21.8700008   1704156.25
 22.0599995   1704459.38
 22.25   1704762.13
 22.4400005   1705063.38
 22.6299992   1705360.
 22.8199997   1705653.5
 23.0100002   1705943.63
 23.2000008   1706233.13
 23.3899994   1706519.5
 23.5799999   1706809.5
 23.7700005   1707098.75
 23.9599991   1707389.5
 24.1499996   1707679.63
 24.3400002   1707968.
 24.5300007   1708254.38
 24.7199993   1708536.38
 24.9099998   1708818.13
 25.1000004   1709099.5
 25.2900009   1709382.25
 25.4799995   1709666.
 25.6700001   1709953.88
 25.8600006   1710241.5
 26.0499992   1710528.5
 26.2399998   1710813.
 26.4300003   1711099.
 26.6200008   1711382.63
 26.8099995   1711669.5
