 -30.   -5794518.5
 -29.8099995   -5795694.
 -29.6200008   -5796866.5
 -29.4300003   -5798036.
 -29.2399998   -5799204.
 -29.0499992   -5800374.
 -28.8600006   -5801549.
 -28.6700001   -5802724.5
 -28.4799995   -5803903.
 -28.2900009   -5805081.
 -28.1000004   -5806256.5
 -27.9099998   -5807427.
 -27.7199993   -5808593.
 -27.5300007   -5809756.
 -27.3400002   -5810915.
 -27.1499996   -5812075.5
 -26.9599991   -5813237.5
 -26.7700005   -5814404.
 -26.5799999   -5815572.5
 -26.3899994   -5816747.
 -26.2000008   -5817923.
 -26.0100002   -5819097.5
 -25.8199997   -5820268.
 -25.6299992   -5821433.
 -25.4400005   -5822592.
 -25.25   -5823747.
 -25.0599995   -5824902.
 -24.8700008   -5826056.
 -24.6800003   -5827213.5
 -24.4899998   -5828373.
 -24.2999992   -5829537.5
 -24.1100006   -5830702.5
 -23.9200001   -5831868.
 -23.7299995   -5833031.
 -23.5400009   -5834186.5
 -23.3500004   -5835338.5
 -23.1599998   -5836485.
 -22.9699993   -5837630.5
 -22.7800007   -5838776.5
 -22.5900002   -5839922.5
 -22.3999996   -5841075.
 -22.2099991   -5842231.5
 -22.0200005   -5843391.5
 -21.8299999   -5844554.
 -21.6399994   -5845715.5
 -21.4500008   -5846873.5
 -21.2600002   -5848027.5
 -21.0699997   -5849174.
 -20.8799992   -5850320.
 -20.6900005   -5851464.5
 -20.5   -5852610.
 -20.3099995   -5853761.
 -20.1200008   -5854916.
 -19.9300003   -5856078.
 -19.7399998   -5857241.5
 -19.5499992   -5858404.
 -19.3600006   -5859565.5
 -19.1700001   -5860722.
 -18.9799995   -5861875.5
 -18.7900009   -5863023.5
 -18.6000004   -5864169.5
 -18.4099998   -5865318.
 -18.2199993   -5866469.
 -18.0300007   -5867623.5
 -17.8400002   -5868781.5
 -17.6499996   -5869942.
 -17.4599991   -5871101.5
 -17.2700005   -5872260.
 -17.0799999   -5873417.
 -16.8899994   -5874568.
 -16.7000008   -5875717.
 -16.5100002   -5876866.
 -16.3199997   -5878013.5
 -16.1299992   -5879162.
 -15.9399996   -5880314.
 -15.75   -5881466.
 -15.5600004   -5882620.
 -15.3699999   -5883776.
 -15.1800003   -5884931.5
 -14.9899998   -5886087.
 -14.8000002   -5887241.
 -14.6099997   -5888394.5
 -14.4200001   -5889542.
 -14.2299995   -5890689.
 -14.04   -5891834.
 -13.8500004   -5892978.5
 -13.6599998   -5894124.5
 -13.4700003   -5895271.
 -13.2799997   -5896420.
 -13.0900002   -5897571.5
 -12.8999996   -5898724.
 -12.71   -5899874.
 -12.5200005   -5901021.5
 -12.3299999   -5902166.
 -12.1400003   -5903307.5
 -11.9499998   -5904445.
 -11.7600002   -5905581.
 -11.5699997   -5906717.
 -11.3800001   -5907854.
 -11.1899996   -5908993.
 -11.   -5910136.
 -10.8100004   -5911281.
 -10.6199999   -5912426.5
 -10.4300003   -5913572.5
 -10.2399998   -5914715.
 -10.0500002   -5915855.5
 -9.85999966   -5916991.
 -9.67000008   -5918126.5
 -9.47999954   -5919260.5
 -9.28999996   -5920394.
 -9.10000038   -5921529.
 -8.90999985   -5922669.
 -8.72000027   -5923809.5
 -8.52999973   -5924953.5
 -8.34000015   -5926096.
 -8.14999962   -5927236.5
 -7.96000004   -5928370.
 -7.76999998   -5929500.
 -7.57999992   -5930626.5
 -7.38999987   -5931749.
 -7.19999981   -5932873.5
 -7.01000023   -5934003.5
 -6.82000017   -5935137.
 -6.63000011   -5936277.
 -6.44000006   -5937421.5
 -6.25   -5938564.
 -6.05999994   -5939703.
 -5.86999989   -5940836.5
 -5.67999983   -5941962.
 -5.48999977   -5943082.
 -5.30000019   -5944196.5
 -5.11000013   -5945313.
 -4.92000008   -5946434.5
 -4.73000002   -5947561.5
 -4.53999996   -5948696.
 -4.3499999   -5949835.
 -4.15999985   -5950976.
 -3.97000003   -5952114.
 -3.77999997   -5953244.5
 -3.58999991   -5954368.5
 -3.4000001   -5955484.5
 -3.21000004   -5956597.
 -3.01999998   -5957713.
 -2.82999992   -5958832.5
 -2.6400001   -5959960.
 -2.45000005   -5961094.
 -2.25999999   -5962231.5
 -2.06999993   -5963369.5
 -1.88   -5964502.
 -1.69000006   -5965628.5
 -1.5   -5966747.5
 -1.30999994   -5967859.5
 -1.12   -5968969.5
 -0.930000007   -5970078.5
 -0.74000001   -5971193.5
 -0.550000012   -5972317.
 -0.360000014   -5973446.5
 -0.170000002   -5974579.
 1.999999955E-2   -5975714.5
 0.209999993   -5976847.5
 0.400000006   -5977974.5
 0.589999974   -5979094.
 0.779999971   -5980205.5
 0.970000029   -5981314.5
 1.15999997   -5982423.
 1.35000002   -5983533.5
 1.53999996   -5984651.5
 1.73000002   -5985773.
 1.91999996   -5986901.
 2.1099999   -5988032.
 2.29999995   -5989163.5
 2.49000001   -5990289.
 2.68000007   -5991410.5
 2.86999989   -5992526.
 3.05999994   -5993634.5
 3.25   -5994740.5
 3.44000006   -5995846.5
 3.63000011   -5996953.5
 3.81999993   -5998065.
 4.01000023   -5999181.5
 4.19999981   -6000304.
 4.38999987   -6001427.
 4.57999992   -6002551.5
 4.76999998   -6003670.
 4.96000004   -6004781.5
 5.1500001   -6005885.5
 5.34000015   -6006986.
 5.53000021   -6008083.
 5.71999979   -6009182.5
 5.90999985   -6010285.5
 6.0999999   -6011396.
 6.28999996   -6012515.
 6.48000002   -6013637.
 6.67000008   -6014761.5
 6.86000013   -6015883.
 7.05000019   -6016996.
 7.23999977   -6018102.5
 7.42999983   -6019201.
 7.61999989   -6020296.5
 7.80999994   -6021392.
 8.   -6022492.5
 8.18999958   -6023600.5
 8.38000011   -6024713.5
 8.56999969   -6025831.
 8.76000023   -6026949.5
 8.94999981   -6028063.5
 9.14000034   -6029171.5
 9.32999992   -6030271.
 9.52000046   -6031363.
 9.71000004   -6032453.
 9.89999962   -6033541.
 10.0900002   -6034632.5
 10.2799997   -6035727.
 10.4700003   -6036826.
 10.6599998   -6037929.
 10.8500004   -6039035.
 11.04   -6040141.
 11.2299995   -6041242.
 11.4200001   -6042337.5
 11.6099997   -6043427.5
 11.8000002   -6044515.5
 11.9899998   -6045603.5
 12.1800003   -6046691.5
 12.3699999   -6047784.5
 12.5600004   -6048880.5
 12.75   -6049984.
 12.9399996   -6051091.
 13.1300001   -6052199.5
 13.3199997   -6053309.5
 13.5100002   -6054416.
 13.6999998   -6055519.
 13.8900003   -6056618.
 14.0799999   -6057713.
 14.2700005   -6058805.5
 14.46   -6059897.5
 14.6499996   -6060990.5
 14.8400002   -6062084.
 15.0299997   -6063180.
 15.2200003   -6064282.5
 15.4099998   -6065386.
 15.6000004   -6066490.
 15.79   -6067595.
 15.9799995   -6068694.5
 16.1700001   -6069788.
 16.3600006   -6070875.5
 16.5499992   -6071959.5
 16.7399998   -6073040.5
 16.9300003   -6074122.5
 17.1200008   -6075209.
 17.3099995   -6076300.5
 17.5   -6077396.
 17.6900005   -6078494.
 17.8799992   -6079590.
 18.0699997   -6080681.5
 18.2600002   -6081766.
 18.4500008   -6082846.5
 18.6399994   -6083924.5
 18.8299999   -6085002.
 19.0200005   -6086084.5
 19.2099991   -6087172.
 19.3999996   -6088267.
 19.5900002   -6089365.5
 19.7800007   -6090467.5
 19.9699993   -6091567.
 20.1599998   -6092660.5
 20.3500004   -6093747.
 20.5400009   -6094829.
 20.7299995   -6095905.
 20.9200001   -6096983.5
 21.1100006   -6098061.
 21.2999992   -6099144.5
 21.4899998   -6100233.
 21.6800003   -6101325.
 21.8700008   -6102421.
 22.0599995   -6103517.
 22.25   -6104610.5
 22.4400005   -6105698.
 22.6299992   -6106780.
 22.8199997   -6107860.5
 23.0100002   -6108938.5
 23.2000008   -6110017.
 23.3899994   -6111097.5
 23.5799999   -6112184.
 23.7700005   -6113271.5
 23.9599991   -6114362.5
 24.1499996   -6115453.
 24.3400002   -6116541.5
 24.5300007   -6117625.5
 24.7199993   -6118705.5
 24.9099998   -6119780.5
 25.1000004   -6120851.5
 25.2900009   -6121921.5
 25.4799995   -6122992.5
 25.6700001   -6124069.
 25.8600006   -6125148.
 26.0499992   -6126231.5
 26.2399998   -6127315.5
 26.4300003   -6128399.
 26.6200008   -6129476.
 26.8099995   -6130550.5
