 -30.   9253193.
 -29.8099995   9255086.
 -29.6200008   9256981.
 -29.4300003   9258876.
 -29.2399998   9260767.
 -29.0499992   9262660.
 -28.8600006   9264554.
 -28.6700001   9266453.
 -28.4799995   9268351.
 -28.2900009   9270247.
 -28.1000004   9272141.
 -27.9099998   9274034.
 -27.7199993   9275930.
 -27.5300007   9277830.
 -27.3400002   9279729.
 -27.1499996   9281626.
 -26.9599991   9283524.
 -26.7700005   9285417.
 -26.5799999   9287314.
 -26.3899994   9289211.
 -26.2000008   9291110.
 -26.0100002   9293007.
 -25.8199997   9294903.
 -25.6299992   9296798.
 -25.4400005   9298694.
 -25.25   9300591.
 -25.0599995   9302491.
 -24.8700008   9304389.
 -24.6800003   9306285.
 -24.4899998   9308177.
 -24.2999992   9310072.
 -24.1100006   9311967.
 -23.9200001   9313866.
 -23.7299995   9315765.
 -23.5400009   9317661.
 -23.3500004   9319554.
 -23.1599998   9321449.
 -22.9699993   9323348.
 -22.7800007   9325251.
 -22.5900002   9327148.
 -22.3999996   9329044.
 -22.2099991   9330938.
 -22.0200005   9332831.
 -21.8299999   9334727.
 -21.6399994   9336628.
 -21.4500008   9338528.
 -21.2600002   9340427.
 -21.0699997   9342322.
 -20.8799992   9344219.
 -20.6900005   9346117.
 -20.5   9348021.
 -20.3099995   9349922.
 -20.1200008   9351824.
 -19.9300003   9353720.
 -19.7399998   9355615.
 -19.5499992   9357513.
 -19.3600006   9359419.
 -19.1700001   9361323.
 -18.9799995   9363226.
 -18.7900009   9365125.
 -18.6000004   9367021.
 -18.4099998   9368921.
 -18.2199993   9370826.
 -18.0300007   9372733.
 -17.8400002   9374637.
 -17.6499996   9376538.
 -17.4599991   9378439.
 -17.2700005   9380344.
 -17.0799999   9382253.
 -16.8899994   9384164.
 -16.7000008   9386072.
 -16.5100002   9387976.
 -16.3199997   9389878.
 -16.1299992   9391784.
 -15.9399996   9393694.
 -15.75   9395607.
 -15.5600004   9397517.
 -15.3699999   9399421.
 -15.1800003   9401323.
 -14.9899998   9403227.
 -14.8000002   9405134.
 -14.6099997   9407044.
 -14.4200001   9408952.
 -14.2299995   9410857.
 -14.04   9412759.
 -13.8500004   9414661.
 -13.6599998   9416569.
 -13.4700003   9418480.
 -13.2799997   9420392.
 -13.0900002   9422299.
 -12.8999996   9424202.
 -12.71   9426104.
 -12.5200005   9428011.
 -12.3299999   9429920.
 -12.1400003   9431830.
 -11.9499998   9433733.
 -11.7600002   9435632.
 -11.5699997   9437531.
 -11.3800001   9439435.
 -11.1899996   9441344.
 -11.   9443252.
 -10.8100004   9445157.
 -10.6199999   9447056.
 -10.4300003   9448955.
 -10.2399998   9450858.
 -10.0500002   9452764.
 -9.85999966   9454669.
 -9.67000008   9456570.
 -9.47999954   9458470.
 -9.28999996   9460369.
 -9.10000038   9462275.
 -8.90999985   9464183.
 -8.72000027   9466090.
 -8.52999973   9467992.
 -8.34000015   9469889.
 -8.14999962   9471788.
 -7.96000004   9473693.
 -7.76999998   9475601.
 -7.57999992   9477508.
 -7.38999987   9479411.
 -7.19999981   9481312.
 -7.01000023   9483214.
 -6.82000017   9485119.
 -6.63000011   9487028.
 -6.44000006   9488936.
 -6.25   9490841.
 -6.05999994   9492744.
 -5.86999989   9494648.
 -5.67999983   9496554.
 -5.48999977   9498461.
 -5.30000019   9500367.
 -5.11000013   9502273.
 -4.92000008   9504175.
 -4.73000002   9506080.
 -4.53999996   9507993.
 -4.3499999   9509906.
 -4.15999985   9511820.
 -3.97000003   9513734.
 -3.77999997   9515643.
 -3.58999991   9517553.
 -3.4000001   9519468.
 -3.21000004   9521388.
 -3.01999998   9523306.
 -2.82999992   9525224.
 -2.6400001   9527139.
 -2.45000005   9529056.
 -2.25999999   9530978.
 -2.06999993   9532903.
 -1.88   9534826.
 -1.69000006   9536744.
 -1.5   9538658.
 -1.30999994   9540571.
 -1.12   9542485.
 -0.930000007   9544402.
 -0.74000001   9546320.
 -0.550000012   9548238.
 -0.360000014   9550154.
 -0.170000002   9552070.
 1.999999955E-2   9553987.
 0.209999993   9555906.
 0.400000006   9557826.
 0.589999974   9559745.
 0.779999971   9561662.
 0.970000029   9563581.
 1.15999997   9565496.
 1.35000002   9567417.
 1.53999996   9569339.
 1.73000002   9571263.
 1.91999996   9573185.
 2.1099999   9575107.
 2.29999995   9577027.
 2.49000001   9578944.
 2.68000007   9580863.
 2.86999989   9582780.
 3.05999994   9584695.
 3.25   9586610.
 3.44000006   9588528.
 3.63000011   9590450.
 3.81999993   9592373.
 4.01000023   9594299.
 4.19999981   9596220.
 4.38999987   9598139.
 4.57999992   9600058.
 4.76999998   9601976.
 4.96000004   9603895.
 5.1500001   9605809.
 5.34000015   9607724.
 5.53000021   9609640.
 5.71999979   9611559.
 5.90999985   9613481.
 6.0999999   9615402.
 6.28999996   9617323.
 6.48000002   9619240.
 6.67000008   9621159.
 6.86000013   9623076.
 7.05000019   9624992.
 7.23999977   9626906.
 7.42999983   9628818.
 7.61999989   9630728.
 7.80999994   9632641.
 8.   9634554.
 8.18999958   9636471.
 8.38000011   9638388.
 8.56999969   9640304.
 8.76000023   9642219.
 8.94999981   9644140.
 9.14000034   9646062.
 9.32999992   9647986.
 9.52000046   9649906.
 9.71000004   9651819.
 9.89999962   9653731.
 10.0900002   9655645.
 10.2799997   9657564.
 10.4700003   9659483.
 10.6599998   9661400.
 10.8500004   9663315.
 11.04   9665226.
 11.2299995   9667144.
 11.4200001   9669064.
 11.6099997   9670987.
 11.8000002   9672906.
 11.9899998   9674821.
 12.1800003   9676736.
 12.3699999   9678657.
 12.5600004   9680584.
 12.75   9682513.
 12.9399996   9684439.
 13.1300001   9686358.
 13.3199997   9688276.
 13.5100002   9690199.
 13.6999998   9692126.
 13.8900003   9694055.
 14.0799999   9695978.
 14.2700005   9697897.
 14.46   9699814.
 14.6499996   9701740.
 14.8400002   9703672.
 15.0299997   9705603.
 15.2200003   9707529.
 15.4099998   9709448.
 15.6000004   9711364.
 15.79   9713285.
 15.9799995   9715213.
 16.1700001   9717143.
 16.3600006   9719069.
 16.5499992   9720994.
 16.7399998   9722919.
 16.9300003   9724848.
 17.1200008   9726784.
 17.3099995   9728718.
 17.5   9730647.
 17.6900005   9732569.
 17.8799992   9734491.
 18.0699997   9736418.
 18.2600002   9738350.
 18.4500008   9740283.
 18.6399994   9742207.
 18.8299999   9744127.
 19.0200005   9746048.
 19.2099991   9747969.
 19.3999996   9749898.
 19.5900002   9751824.
 19.7800007   9753746.
 19.9699993   9755664.
 20.1599998   9757585.
 20.3500004   9759513.
 20.5400009   9761449.
 20.7299995   9763381.
 20.9200001   9765308.
 21.1100006   9767229.
 21.2999992   9769151.
 21.4899998   9771080.
 21.6800003   9773009.
 21.8700008   9774938.
 22.0599995   9776860.
 22.25   9778778.
 22.4400005   9780697.
 22.6299992   9782624.
 22.8199997   9784554.
 23.0100002   9786484.
 23.2000008   9788408.
 23.3899994   9790325.
 23.5799999   9792243.
 23.7700005   9794166.
 23.9599991   9796099.
 24.1499996   9798028.
 24.3400002   9799954.
 24.5300007   9801870.
 24.7199993   9803787.
 24.9099998   9805710.
 25.1000004   9807641.
 25.2900009   9809572.
 25.4799995   9811497.
 25.6700001   9813413.
 25.8600006   9815327.
 26.0499992   9817246.
 26.2399998   9819174.
 26.4300003   9821103.
 26.6200008   9823024.
 26.8099995   9824934.
