 -30.   -7695612.5
 -29.8099995   -7697171.
 -29.6200008   -7698717.
 -29.4300003   -7700259.
 -29.2399998   -7701798.5
 -29.0499992   -7703345.5
 -28.8600006   -7704901.
 -28.6700001   -7706464.5
 -28.4799995   -7708034.5
 -28.2900009   -7709602.
 -28.1000004   -7711165.
 -27.9099998   -7712716.
 -27.7199993   -7714255.5
 -27.5300007   -7715783.5
 -27.3400002   -7717307.
 -27.1499996   -7718826.
 -26.9599991   -7720354.
 -26.7700005   -7721891.5
 -26.5799999   -7723442.
 -26.3899994   -7725005.
 -26.2000008   -7726572.
 -26.0100002   -7728132.5
 -25.8199997   -7729682.
 -25.6299992   -7731221.5
 -25.4400005   -7732746.
 -25.25   -7734265.5
 -25.0599995   -7735785.5
 -24.8700008   -7737312.5
 -24.6800003   -7738852.
 -24.4899998   -7740400.5
 -24.2999992   -7741957.
 -24.1100006   -7743515.5
 -23.9200001   -7745070.
 -23.7299995   -7746618.
 -23.5400009   -7748152.5
 -23.3500004   -7749679.5
 -23.1599998   -7751197.5
 -22.9699993   -7752710.5
 -22.7800007   -7754221.5
 -22.5900002   -7755735.5
 -22.3999996   -7757259.
 -22.2099991   -7758794.5
 -22.0200005   -7760345.5
 -21.8299999   -7761907.5
 -21.6399994   -7763475.5
 -21.4500008   -7765038.5
 -21.2600002   -7766591.5
 -21.0699997   -7768127.
 -20.8799992   -7769644.
 -20.6900005   -7771150.5
 -20.5   -7772656.
 -20.3099995   -7774170.5
 -20.1200008   -7775700.5
 -19.9300003   -7777250.
 -19.7399998   -7778815.5
 -19.5499992   -7780386.5
 -19.3600006   -7781952.5
 -19.1700001   -7783506.5
 -18.9799995   -7785044.
 -18.7900009   -7786562.
 -18.6000004   -7788067.5
 -18.4099998   -7789569.
 -18.2199993   -7791073.5
 -18.0300007   -7792589.5
 -17.8400002   -7794124.
 -17.6499996   -7795675.
 -17.4599991   -7797241.
 -17.2700005   -7798809.5
 -17.0799999   -7800374.
 -16.8899994   -7801922.
 -16.7000008   -7803449.
 -16.5100002   -7804954.5
 -16.3199997   -7806450.
 -16.1299992   -7807942.
 -15.9399996   -7809452.
 -15.75   -7810984.
 -15.5600004   -7812546.
 -15.3699999   -7814130.5
 -15.1800003   -7815724.5
 -14.9899998   -7817311.
 -14.8000002   -7818873.5
 -14.6099997   -7820410.5
 -14.4200001   -7821922.
 -14.2299995   -7823418.
 -14.04   -7824913.5
 -13.8500004   -7826419.5
 -13.6599998   -7827949.
 -13.4700003   -7829498.5
 -13.2799997   -7831067.
 -13.0900002   -7832639.
 -12.8999996   -7834206.5
 -12.71   -7835758.
 -12.5200005   -7837291.
 -12.3299999   -7838804.5
 -12.1400003   -7840306.
 -11.9499998   -7841802.
 -11.7600002   -7843302.
 -11.5699997   -7844814.5
 -11.3800001   -7846341.
 -11.1899996   -7847888.5
 -11.   -7849448.5
 -10.8100004   -7851014.
 -10.6199999   -7852572.5
 -10.4300003   -7854117.
 -10.2399998   -7855640.
 -10.0500002   -7857143.5
 -9.85999966   -7858631.5
 -9.67000008   -7860116.5
 -9.47999954   -7861606.5
 -9.28999996   -7863109.5
 -9.10000038   -7864629.
 -8.90999985   -7866164.
 -8.72000027   -7867703.
 -8.52999973   -7869237.5
 -8.34000015   -7870760.5
 -8.14999962   -7872267.5
 -7.96000004   -7873759.5
 -7.76999998   -7875247.
 -7.57999992   -7876731.
 -7.38999987   -7878223.
 -7.19999981   -7879727.
 -7.01000023   -7881240.
 -6.82000017   -7882764.
 -6.63000011   -7884296.
 -6.44000006   -7885829.5
 -6.25   -7887362.
 -6.05999994   -7888888.5
 -5.86999989   -7890403.5
 -5.67999983   -7891907.5
 -5.48999977   -7893399.
 -5.30000019   -7894884.5
 -5.11000013   -7896367.
 -4.92000008   -7897853.5
 -4.73000002   -7899352.5
 -4.53999996   -7900862.5
 -4.3499999   -7902384.5
 -4.15999985   -7903908.
 -3.97000003   -7905432.5
 -3.77999997   -7906944.
 -3.58999991   -7908441.5
 -3.4000001   -7909927.
 -3.21000004   -7911402.
 -3.01999998   -7912880.
 -2.82999992   -7914364.
 -2.6400001   -7915858.5
 -2.45000005   -7917361.5
 -2.25999999   -7918876.5
 -2.06999993   -7920398.
 -1.88   -7921920.5
 -1.69000006   -7923439.5
 -1.5   -7924950.5
 -1.30999994   -7926449.
 -1.12   -7927936.
 -0.930000007   -7929417.
 -0.74000001   -7930897.
 -0.550000012   -7932385.
 -0.360000014   -7933885.5
 -0.170000002   -7935400.
 1.999999955E-2   -7936926.
 0.209999993   -7938459.
 0.400000006   -7939986.
 0.589999974   -7941501.5
 0.779999971   -7942995.
 0.970000029   -7944466.5
 1.15999997   -7945925.
 1.35000002   -7947377.
 1.53999996   -7948840.
 1.73000002   -7950320.
 1.91999996   -7951820.
 2.1099999   -7953337.5
 2.29999995   -7954862.5
 2.49000001   -7956386.
 2.68000007   -7957902.
 2.86999989   -7959404.
 3.05999994   -7960895.
 3.25   -7962377.
 3.44000006   -7963855.5
 3.63000011   -7965342.
 3.81999993   -7966838.
 4.01000023   -7968342.5
 4.19999981   -7969854.5
 4.38999987   -7971371.5
 4.57999992   -7972886.
 4.76999998   -7974394.
 4.96000004   -7975891.
 5.1500001   -7977373.5
 5.34000015   -7978839.5
 5.53000021   -7980295.5
 5.71999979   -7981745.
 5.90999985   -7983198.
 6.0999999   -7984665.5
 6.28999996   -7986150.
 6.48000002   -7987651.5
 6.67000008   -7989161.5
 6.86000013   -7990673.
 7.05000019   -7992170.5
 7.23999977   -7993651.5
 7.42999983   -7995114.5
 7.61999989   -7996565.
 7.80999994   -7998013.5
 8.   -7999472.5
 8.18999958   -8000949.5
 8.38000011   -8002448.5
 8.56999969   -8003961.5
 8.76000023   -8005482.
 8.94999981   -8006995.
 9.14000034   -8008495.
 9.32999992   -8009974.5
 9.52000046   -8011435.
 9.71000004   -8012882.5
 9.89999962   -8014325.5
 10.0900002   -8015771.5
 10.2799997   -8017226.
 10.4700003   -8018698.
 10.6599998   -8020181.
 10.8500004   -8021675.
 11.04   -8023170.5
 11.2299995   -8024659.
 11.4200001   -8026134.5
 11.6099997   -8027594.5
 11.8000002   -8029040.5
 11.9899998   -8030481.
 12.1800003   -8031920.5
 12.3699999   -8033371.
 12.5600004   -8034838.5
 12.75   -8036327.
 12.9399996   -8037830.5
 13.1300001   -8039340.
 13.3199997   -8040843.5
 13.5100002   -8042334.5
 13.6999998   -8043805.5
 13.8900003   -8045264.5
 14.0799999   -8046716.
 14.2700005   -8048167.
 14.46   -8049627.
 14.6499996   -8051102.
 14.8400002   -8052587.5
 15.0299997   -8054083.5
 15.2200003   -8055580.5
 15.4099998   -8057071.5
 15.6000004   -8058551.5
 15.79   -8060019.5
 15.9799995   -8061475.5
 16.1700001   -8062922.5
 16.3600006   -8064363.
 16.5499992   -8065804.5
 16.7399998   -8067254.5
 16.9300003   -8068711.
 17.1200008   -8070181.
 17.3099995   -8071660.5
 17.5   -8073146.
 17.6900005   -8074630.5
 17.8799992   -8076104.
 18.0699997   -8077558.5
 18.2600002   -8078997.5
 18.4500008   -8080422.5
 18.6399994   -8081840.5
 18.8299999   -8083266.5
 19.0200005   -8084706.5
 19.2099991   -8086167.
 19.3999996   -8087645.
 19.5900002   -8089130.
 19.7800007   -8090614.5
 19.9699993   -8092087.5
 20.1599998   -8093542.5
 20.3500004   -8094980.
 20.5400009   -8096406.
 20.7299995   -8097830.
 20.9200001   -8099257.5
 21.1100006   -8100700.5
 21.2999992   -8102153.5
 21.4899998   -8103618.
 21.6800003   -8105086.5
 21.8700008   -8106556.
 22.0599995   -8108018.
 22.25   -8109474.
 22.4400005   -8110926.5
 22.6299992   -8112371.5
 22.8199997   -8113813.
 23.0100002   -8115252.5
 23.2000008   -8116688.5
 23.3899994   -8118127.
 23.5799999   -8119570.
 23.7700005   -8121021.5
 23.9599991   -8122481.
 24.1499996   -8123947.5
 24.3400002   -8125419.5
 24.5300007   -8126887.5
 24.7199993   -8128348.
 24.9099998   -8129794.
 25.1000004   -8131225.5
 25.2900009   -8132652.
 25.4799995   -8134073.
 25.6700001   -8135501.5
 25.8600006   -8136943.
 26.0499992   -8138398.5
 26.2399998   -8139861.
 26.4300003   -8141325.5
 26.6200008   -8142784.5
 26.8099995   -8144233.5
