 -30.   297712.625
 -29.8099995   297830.344
 -29.6200008   297990.875
 -29.4300003   298174.188
 -29.2399998   298350.031
 -29.0499992   298498.563
 -28.8600006   298609.
 -28.6700001   298684.5
 -28.4799995   298739.688
 -28.2900009   298796.063
 -28.1000004   298875.188
 -27.9099998   298988.844
 -27.7199993   299145.438
 -27.5300007   299333.281
 -27.3400002   299536.469
 -27.1499996   299733.594
 -26.9599991   299902.563
 -26.7700005   300028.75
 -26.5799999   300111.781
 -26.3899994   300156.875
 -26.2000008   300185.906
 -26.0100002   300221.906
 -25.8199997   300284.125
 -25.6299992   300388.344
 -25.4400005   300534.531
 -25.25   300714.375
 -25.0599995   300908.5
 -24.8700008   301093.469
 -24.6800003   301247.063
 -24.4899998   301355.813
 -24.2999992   301421.938
 -24.1100006   301456.25
 -23.9200001   301484.031
 -23.7299995   301529.125
 -23.5400009   301610.063
 -23.3500004   301731.656
 -23.1599998   301888.844
 -22.9699993   302064.156
 -22.7800007   302232.375
 -22.5900002   302371.688
 -22.3999996   302471.063
 -22.2099991   302526.406
 -22.0200005   302548.063
 -21.8299999   302555.438
 -21.6399994   302569.281
 -21.4500008   302609.313
 -21.2600002   302686.813
 -21.0699997   302798.875
 -20.8799992   302937.438
 -20.6900005   303085.031
 -20.5   303224.969
 -20.3099995   303345.
 -20.1200008   303436.625
 -19.9300003   303501.625
 -19.7399998   303544.094
 -19.5499992   303579.906
 -19.3600006   303624.625
 -19.1700001   303687.938
 -18.9799995   303778.438
 -18.7900009   303891.813
 -18.6000004   304020.281
 -18.4099998   304149.094
 -18.2199993   304261.844
 -18.0300007   304355.813
 -17.8400002   304419.156
 -17.6499996   304461.
 -17.4599991   304489.719
 -17.2700005   304524.625
 -17.0799999   304578.25
 -16.8899994   304661.469
 -16.7000008   304777.063
 -16.5100002   304913.219
 -16.3199997   305055.281
 -16.1299992   305184.188
 -15.9399996   305288.219
 -15.75   305354.75
 -15.5600004   305391.563
 -15.3699999   305406.969
 -15.1800003   305421.063
 -14.9899998   305445.906
 -14.8000002   305498.375
 -14.6099997   305581.156
 -14.4200001   305691.625
 -14.2299995   305814.875
 -14.04   305936.781
 -13.8500004   306040.313
 -13.6599998   306115.688
 -13.4700003   306166.375
 -13.2799997   306194.656
 -13.0900002   306215.688
 -12.8999996   306244.188
 -12.71   306293.594
 -12.5200005   306371.906
 -12.3299999   306473.688
 -12.1400003   306595.219
 -11.9499998   306721.5
 -11.7600002   306835.5
 -11.5699997   306926.625
 -11.3800001   306989.781
 -11.1899996   307027.688
 -11.   307048.594
 -10.8100004   307064.844
 -10.6199999   307088.531
 -10.4300003   307133.969
 -10.2399998   307206.938
 -10.0500002   307307.875
 -9.85999966   307428.531
 -9.67000008   307557.125
 -9.47999954   307675.25
 -9.28999996   307768.406
 -9.10000038   307828.875
 -8.90999985   307861.938
 -8.72000027   307875.875
 -8.52999973   307887.125
 -8.34000015   307915.625
 -8.14999962   307977.938
 -7.96000004   308077.
 -7.76999998   308205.656
 -7.57999992   308349.781
 -7.38999987   308485.188
 -7.19999981   308591.719
 -7.01000023   308660.156
 -6.82000017   308690.094
 -6.63000011   308696.125
 -6.44000006   308699.875
 -6.25   308722.5
 -6.05999994   308780.094
 -5.86999989   308874.969
 -5.67999983   309000.313
 -5.48999977   309141.531
 -5.30000019   309277.75
 -5.11000013   309391.563
 -4.92000008   309475.438
 -4.73000002   309527.375
 -4.53999996   309557.125
 -4.3499999   309580.219
 -4.15999985   309611.
 -3.97000003   309662.719
 -3.77999997   309740.219
 -3.58999991   309844.281
 -3.4000001   309965.75
 -3.21000004   310092.938
 -3.01999998   310217.094
 -2.82999992   310319.688
 -2.6400001   310395.75
 -2.45000005   310439.406
 -2.25999999   310462.313
 -2.06999993   310473.563
 -1.88   310492.031
 -1.69000006   310535.156
 -1.5   310611.25
 -1.30999994   310720.625
 -1.12   310852.938
 -0.930000007   310992.656
 -0.74000001   311121.094
 -0.550000012   311222.75
 -0.360000014   311288.406
 -0.170000002   311320.406
 1.999999955E-2   311330.594
 0.209999993   311340.719
 0.400000006   311367.625
 0.589999974   311426.344
 0.779999971   311523.281
 0.970000029   311653.25
 1.15999997   311796.031
 1.35000002   311934.188
 1.53999996   312049.063
 1.73000002   312129.
 1.91999996   312176.438
 2.1099999   312198.344
 2.29999995   312212.906
 2.49000001   312238.563
 2.68000007   312295.063
 2.86999989   312383.188
 3.05999994   312500.5
 3.25   312636.25
 3.44000006   312771.625
 3.63000011   312885.813
 3.81999993   312972.125
 4.01000023   313025.094
 4.19999981   313050.813
 4.38999987   313065.688
 4.57999992   313081.625
 4.76999998   313115.813
 4.96000004   313177.344
 5.1500001   313269.75
 5.34000015   313389.063
 5.53000021   313524.594
 5.71999979   313656.75
 5.90999985   313772.938
 6.0999999   313863.063
 6.28999996   313919.781
 6.48000002   313950.75
 6.67000008   313968.719
 6.86000013   313989.5
 7.05000019   314026.281
 7.23999977   314093.875
 7.42999983   314198.156
 7.61999989   314327.625
 7.80999994   314470.969
 8.   314605.813
 8.18999958   314714.594
 8.38000011   314784.625
 8.56999969   314819.344
 8.76000023   314830.406
 8.94999981   314836.125
 9.14000034   314859.719
 9.32999992   314912.844
 9.52000046   315004.219
 9.71000004   315130.281
 9.89999962   315273.469
 10.0900002   315415.781
 10.2799997   315541.094
 10.4700003   315635.438
 10.6599998   315698.063
 10.8500004   315735.469
 11.04   315766.75
 11.2299995   315807.813
 11.4200001   315872.625
 11.6099997   315970.844
 11.8000002   316099.156
 11.9899998   316246.719
 12.1800003   316393.656
 12.3699999   316525.344
 12.5600004   316626.219
 12.75   316692.781
 12.9399996   316726.
 13.1300001   316739.094
 13.3199997   316745.344
 13.5100002   316761.313
 13.6999998   316798.969
 13.8900003   316862.313
 14.0799999   316944.563
 14.2700005   317038.625
 14.46   317132.656
 14.6499996   317216.031
 14.8400002   317281.
 15.0299997   317323.
 15.2200003   317346.719
 15.4099998   317360.906
 15.6000004   317376.375
 15.79   317409.25
 15.9799995   317470.719
 16.1700001   317561.438
 16.3600006   317681.406
 16.5499992   317820.438
 16.7399998   317959.969
 16.9300003   318090.125
 17.1200008   318195.469
 17.3099995   318273.219
 17.5   318327.469
 17.6900005   318369.156
 17.8799992   318415.219
 18.0699997   318482.156
 18.2600002   318582.75
 18.4500008   318713.594
 18.6399994   318866.719
 18.8299999   319026.781
 19.0200005   319170.656
 19.2099991   319287.344
 19.3999996   319368.031
 19.5900002   319415.
 19.7800007   319438.844
 19.9699993   319464.594
 20.1599998   319508.594
 20.3500004   319585.938
 20.5400009   319697.5
 20.7299995   319838.656
 20.9200001   319989.969
 21.1100006   320129.281
 21.2999992   320243.375
 21.4899998   320322.906
 21.6800003   320371.219
 21.8700008   320395.156
 22.0599995   320417.25
 22.25   320452.969
 22.4400005   320514.156
 22.6299992   320607.156
 22.8199997   320729.031
 23.0100002   320864.719
 23.2000008   320994.219
 23.3899994   321101.688
 23.5799999   321178.063
 23.7700005   321222.188
 23.9599991   321241.219
 24.1499996   321251.
 24.3400002   321264.75
 24.5300007   321299.375
 24.7199993   321360.219
 24.9099998   321448.844
 25.1000004   321559.156
 25.2900009   321679.594
 25.4799995   321792.5
 25.6700001   321887.969
 25.8600006   321958.094
 26.0499992   322006.25
 26.2399998   322038.844
 26.4300003   322068.844
 26.6200008   322110.969
 26.8099995   322173.031
