 -30.   7906175.
 -29.8099995   7907803.5
 -29.6200008   7909432.
 -29.4300003   7911055.
 -29.2399998   7912668.5
 -29.0499992   7914284.
 -28.8600006   7915909.5
 -28.6700001   7917547.
 -28.4799995   7919187.5
 -28.2900009   7920818.
 -28.1000004   7922439.5
 -27.9099998   7924052.
 -27.7199993   7925670.5
 -27.5300007   7927301.
 -27.3400002   7928940.5
 -27.1499996   7930577.5
 -26.9599991   7932204.
 -26.7700005   7933822.5
 -26.5799999   7935442.
 -26.3899994   7937071.
 -26.2000008   7938704.5
 -26.0100002   7940330.
 -25.8199997   7941937.5
 -25.6299992   7943531.
 -25.4400005   7945124.5
 -25.25   7946726.
 -25.0599995   7948338.
 -24.8700008   7949948.5
 -24.6800003   7951546.
 -24.4899998   7953135.5
 -24.2999992   7954726.
 -24.1100006   7956331.5
 -23.9200001   7957952.
 -23.7299995   7959578.
 -23.5400009   7961196.5
 -23.3500004   7962810.5
 -23.1599998   7964426.5
 -22.9699993   7966059.5
 -22.7800007   7967710.5
 -22.5900002   7969365.
 -22.3999996   7971014.5
 -22.2099991   7972647.5
 -22.0200005   7974277.
 -21.8299999   7975915.5
 -21.6399994   7977565.
 -21.4500008   7979213.
 -21.2600002   7980846.
 -21.0699997   7982463.
 -20.8799992   7984074.5
 -20.6900005   7985697.
 -20.5   7987338.
 -20.3099995   7988987.5
 -20.1200008   7990630.5
 -19.9300003   7992253.5
 -19.7399998   7993866.
 -19.5499992   7995481.
 -19.3600006   7997107.
 -19.1700001   7998738.
 -18.9799995   8000361.5
 -18.7900009   8001971.
 -18.6000004   8003576.5
 -18.4099998   8005189.
 -18.2199993   8006825.
 -18.0300007   8008474.5
 -17.8400002   8010121.
 -17.6499996   8011755.5
 -17.4599991   8013373.
 -17.2700005   8014991.5
 -17.0799999   8016623.5
 -16.8899994   8018272.5
 -16.7000008   8019923.5
 -16.5100002   8021563.5
 -16.3199997   8023192.5
 -16.1299992   8024821.5
 -15.9399996   8026460.5
 -15.75   8028114.5
 -15.5600004   8029767.
 -15.3699999   8031407.5
 -15.1800003   8033031.5
 -14.9899998   8034652.
 -14.8000002   8036286.
 -14.6099997   8037934.
 -14.4200001   8039583.
 -14.2299995   8041217.
 -14.04   8042830.5
 -13.8500004   8044436.5
 -13.6599998   8046049.
 -13.4700003   8047677.5
 -13.2799997   8049315.
 -13.0900002   8050946.
 -12.8999996   8052563.
 -12.71   8054170.
 -12.5200005   8055779.5
 -12.3299999   8057396.5
 -12.1400003   8059014.
 -11.9499998   8060618.
 -11.7600002   8062206.5
 -11.5699997   8063793.
 -11.3800001   8065390.
 -11.1899996   8067010.
 -11.   8068643.5
 -10.8100004   8070277.5
 -10.6199999   8071894.
 -10.4300003   8073503.5
 -10.2399998   8075116.5
 -10.0500002   8076741.
 -9.85999966   8078374.
 -9.67000008   8080000.
 -9.47999954   8081616.5
 -9.28999996   8083226.5
 -9.10000038   8084841.
 -8.90999985   8086466.5
 -8.72000027   8088096.5
 -8.52999973   8089721.
 -8.34000015   8091333.
 -8.14999962   8092934.
 -7.96000004   8094541.
 -7.76999998   8096159.5
 -7.57999992   8097789.5
 -7.38999987   8099421.5
 -7.19999981   8101049.
 -7.01000023   8102670.
 -6.82000017   8104291.5
 -6.63000011   8105921.5
 -6.44000006   8107556.5
 -6.25   8109191.5
 -6.05999994   8110815.5
 -5.86999989   8112429.5
 -5.67999983   8114039.5
 -5.48999977   8115652.5
 -5.30000019   8117272.5
 -5.11000013   8118899.5
 -4.92000008   8120522.5
 -4.73000002   8122142.5
 -4.53999996   8123763.
 -4.3499999   8125387.
 -4.15999985   8127016.5
 -3.97000003   8128650.5
 -3.77999997   8130288.
 -3.58999991   8131918.5
 -3.4000001   8133547.5
 -3.21000004   8135176.
 -3.01999998   8136810.
 -2.82999992   8138447.5
 -2.6400001   8140086.5
 -2.45000005   8141722.5
 -2.25999999   8143351.5
 -2.06999993   8144976.
 -1.88   8146599.
 -1.69000006   8148221.5
 -1.5   8149844.5
 -1.30999994   8151472.
 -1.12   8153093.5
 -0.930000007   8154712.
 -0.74000001   8156332.5
 -0.550000012   8157961.
 -0.360000014   8159598.5
 -0.170000002   8161236.
 1.999999955E-2   8162870.5
 0.209999993   8164495.5
 0.400000006   8166116.5
 0.589999974   8167747.
 0.779999971   8169389.
 0.970000029   8171039.5
 1.15999997   8172687.5
 1.35000002   8174326.5
 1.53999996   8175963.
 1.73000002   8177599.5
 1.91999996   8179244.
 2.1099999   8180892.
 2.29999995   8182532.
 2.49000001   8184160.
 2.68000007   8185781.
 2.86999989   8187409.
 3.05999994   8189049.
 3.25   8190701.
 3.44000006   8192352.5
 3.63000011   8193994.5
 3.81999993   8195625.5
 4.01000023   8197255.
 4.19999981   8198899.5
 4.38999987   8200555.
 4.57999992   8202205.5
 4.76999998   8203841.5
 4.96000004   8205458.5
 5.1500001   8207072.
 5.34000015   8208700.
 5.53000021   8210341.
 5.71999979   8211986.
 5.90999985   8213615.
 6.0999999   8215227.5
 6.28999996   8216837.5
 6.48000002   8218462.
 6.67000008   8220103.5
 6.86000013   8221745.5
 7.05000019   8223369.
 7.23999977   8224978.
 7.42999983   8226583.5
 7.61999989   8228206.5
 7.80999994   8229848.5
 8.   8231494.
 8.18999958   8233128.
 8.38000011   8234744.
 8.56999969   8236356.5
 8.76000023   8237983.
 8.94999981   8239629.5
 9.14000034   8241282.5
 9.32999992   8242926.
 9.52000046   8244549.5
 9.71000004   8246166.5
 9.89999962   8247799.5
 10.0900002   8249450.5
 10.2799997   8251112.5
 10.4700003   8252764.
 10.6599998   8254396.5
 10.8500004   8256015.5
 11.04   8257643.
 11.2299995   8259292.5
 11.4200001   8260959.
 11.6099997   8262617.
 11.8000002   8264255.
 11.9899998   8265878.
 12.1800003   8267502.
 12.3699999   8269142.5
 12.5600004   8270798.
 12.75   8272449.
 12.9399996   8274083.
 13.1300001   8275701.5
 13.3199997   8277321.5
 13.5100002   8278955.
 13.6999998   8280604.5
 13.8900003   8282251.
 14.0799999   8283882.5
 14.2700005   8285492.5
 14.46   8287102.5
 14.6499996   8288728.5
 14.8400002   8290379.
 15.0299997   8292038.5
 15.2200003   8293683.5
 15.4099998   8295309.
 15.6000004   8296926.5
 15.79   8298553.5
 15.9799995   8300194.
 16.1700001   8301842.5
 16.3600006   8303481.
 16.5499992   8305101.
 16.7399998   8306713.5
 16.9300003   8308338.5
 17.1200008   8309983.
 17.3099995   8311633.
 17.5   8313276.
 17.6900005   8314900.5
 17.8799992   8316516.
 18.0699997   8318134.5
 18.2600002   8319772.
 18.4500008   8321420.
 18.6399994   8323068.
 18.8299999   8324700.
 19.0200005   8326322.5
 19.2099991   8327948.5
 19.3999996   8329589.
 19.5900002   8331236.
 19.7800007   8332879.
 19.9699993   8334500.5
 20.1599998   8336111.5
 20.3500004   8337723.
 20.5400009   8339351.5
 20.7299995   8340995.5
 20.9200001   8342642.
 21.1100006   8344276.5
 21.2999992   8345898.
 21.4899998   8347518.
 21.6800003   8349151.5
 21.8700008   8350798.
 22.0599995   8352444.5
 22.25   8354079.
 22.4400005   8355697.5
 22.6299992   8357313.
 22.8199997   8358942.
 23.0100002   8360585.
 23.2000008   8362235.
 23.3899994   8363875.5
 23.5799999   8365505.5
 23.7700005   8367130.
 23.9599991   8368765.
 24.1499996   8370415.5
 24.3400002   8372072.
 24.5300007   8373715.5
 24.7199993   8375341.5
 24.9099998   8376959.5
 25.1000004   8378584.
 25.2900009   8380226.
 25.4799995   8381879.
 25.6700001   8383527.5
 25.8600006   8385159.5
 26.0499992   8386775.5
 26.2399998   8388392.
 26.4300003   8390022.
 26.6200008   8391667.
 26.8099995   8393309.
