 -30.   8484536.
 -29.8099995   8486270.
 -29.6200008   8488002.
 -29.4300003   8489736.
 -29.2399998   8491469.
 -29.0499992   8493202.
 -28.8600006   8494934.
 -28.6700001   8496666.
 -28.4799995   8498400.
 -28.2900009   8500131.
 -28.1000004   8501861.
 -27.9099998   8503591.
 -27.7199993   8505318.
 -27.5300007   8507041.
 -27.3400002   8508766.
 -27.1499996   8510492.
 -26.9599991   8512222.
 -26.7700005   8513956.
 -26.5799999   8515693.
 -26.3899994   8517432.
 -26.2000008   8519166.
 -26.0100002   8520893.
 -25.8199997   8522611.
 -25.6299992   8524321.
 -25.4400005   8526027.
 -25.25   8527738.
 -25.0599995   8529457.
 -24.8700008   8531186.
 -24.6800003   8532924.
 -24.4899998   8534663.
 -24.2999992   8536399.
 -24.1100006   8538126.
 -23.9200001   8539842.
 -23.7299995   8541549.
 -23.5400009   8543256.
 -23.3500004   8544964.
 -23.1599998   8546682.
 -22.9699993   8548413.
 -22.7800007   8550154.
 -22.5900002   8551906.
 -22.3999996   8553665.
 -22.2099991   8555429.
 -22.0200005   8557191.
 -21.8299999   8558949.
 -21.6399994   8560693.
 -21.4500008   8562424.
 -21.2600002   8564142.
 -21.0699997   8565852.
 -20.8799992   8567559.
 -20.6900005   8569275.
 -20.5   8571004.
 -20.3099995   8572742.
 -20.1200008   8574488.
 -19.9300003   8576229.
 -19.7399998   8577957.
 -19.5499992   8579672.
 -19.3600006   8581370.
 -19.1700001   8583058.
 -18.9799995   8584740.
 -18.7900009   8586425.
 -18.6000004   8588114.
 -18.4099998   8589811.
 -18.2199993   8591515.
 -18.0300007   8593226.
 -17.8400002   8594941.
 -17.6499996   8596662.
 -17.4599991   8598382.
 -17.2700005   8600102.
 -17.0799999   8601818.
 -16.8899994   8603533.
 -16.7000008   8605250.
 -16.5100002   8606966.
 -16.3199997   8608686.
 -16.1299992   8610408.
 -15.9399996   8612134.
 -15.75   8613859.
 -15.5600004   8615585.
 -15.3699999   8617313.
 -15.1800003   8619042.
 -14.9899998   8620770.
 -14.8000002   8622493.
 -14.6099997   8624207.
 -14.4200001   8625909.
 -14.2299995   8627601.
 -14.04   8629293.
 -13.8500004   8630985.
 -13.6599998   8632682.
 -13.4700003   8634381.
 -13.2799997   8636081.
 -13.0900002   8637775.
 -12.8999996   8639458.
 -12.71   8641131.
 -12.5200005   8642793.
 -12.3299999   8644453.
 -12.1400003   8646112.
 -11.9499998   8647778.
 -11.7600002   8649453.
 -11.5699997   8651135.
 -11.3800001   8652821.
 -11.1899996   8654508.
 -11.   8656199.
 -10.8100004   8657893.
 -10.6199999   8659588.
 -10.4300003   8661285.
 -10.2399998   8662982.
 -10.0500002   8664679.
 -9.85999966   8666376.
 -9.67000008   8668075.
 -9.47999954   8669777.
 -9.28999996   8671483.
 -9.10000038   8673191.
 -8.90999985   8674900.
 -8.72000027   8676606.
 -8.52999973   8678307.
 -8.34000015   8680003.
 -8.14999962   8681695.
 -7.96000004   8683385.
 -7.76999998   8685082.
 -7.57999992   8686782.
 -7.38999987   8688491.
 -7.19999981   8690206.
 -7.01000023   8691923.
 -6.82000017   8693637.
 -6.63000011   8695346.
 -6.44000006   8697047.
 -6.25   8698741.
 -6.05999994   8700434.
 -5.86999989   8702129.
 -5.67999983   8703822.
 -5.48999977   8705516.
 -5.30000019   8707208.
 -5.11000013   8708893.
 -4.92000008   8710576.
 -4.73000002   8712250.
 -4.53999996   8713922.
 -4.3499999   8715590.
 -4.15999985   8717252.
 -3.97000003   8718909.
 -3.77999997   8720558.
 -3.58999991   8722203.
 -3.4000001   8723846.
 -3.21000004   8725492.
 -3.01999998   8727148.
 -2.82999992   8728815.
 -2.6400001   8730485.
 -2.45000005   8732154.
 -2.25999999   8733810.
 -2.06999993   8735449.
 -1.88   8737070.
 -1.69000006   8738683.
 -1.5   8740301.
 -1.30999994   8741929.
 -1.12   8743574.
 -0.930000007   8745235.
 -0.74000001   8746901.
 -0.550000012   8748563.
 -0.360000014   8750217.
 -0.170000002   8751861.
 1.999999955E-2   8753499.
 0.209999993   8755138.
 0.400000006   8756777.
 0.589999974   8758420.
 0.779999971   8760069.
 0.970000029   8761716.
 1.15999997   8763369.
 1.35000002   8765023.
 1.53999996   8766676.
 1.73000002   8768330.
 1.91999996   8769984.
 2.1099999   8771635.
 2.29999995   8773281.
 2.49000001   8774920.
 2.68000007   8776560.
 2.86999989   8778203.
 3.05999994   8779851.
 3.25   8781507.
 3.44000006   8783166.
 3.63000011   8784826.
 3.81999993   8786483.
 4.01000023   8788135.
 4.19999981   8789783.
 4.38999987   8791429.
 4.57999992   8793078.
 4.76999998   8794729.
 4.96000004   8796385.
 5.1500001   8798040.
 5.34000015   8799696.
 5.53000021   8801352.
 5.71999979   8803004.
 5.90999985   8804651.
 6.0999999   8806291.
 6.28999996   8807919.
 6.48000002   8809537.
 6.67000008   8811150.
 6.86000013   8812760.
 7.05000019   8814378.
 7.23999977   8816007.
 7.42999983   8817646.
 7.61999989   8819293.
 7.80999994   8820937.
 8.   8822568.
 8.18999958   8824187.
 8.38000011   8825796.
 8.56999969   8827409.
 8.76000023   8829028.
 8.94999981   8830668.
 9.14000034   8832324.
 9.32999992   8833995.
 9.52000046   8835665.
 9.71000004   8837332.
 9.89999962   8838987.
 10.0900002   8840633.
 10.2799997   8842273.
 10.4700003   8843911.
 10.6599998   8845550.
 10.8500004   8847193.
 11.04   8848839.
 11.2299995   8850486.
 11.4200001   8852131.
 11.6099997   8853777.
 11.8000002   8855413.
 11.9899998   8857046.
 12.1800003   8858669.
 12.3699999   8860287.
 12.5600004   8861897.
 12.75   8863504.
 12.9399996   8865109.
 13.1300001   8866715.
 13.3199997   8868320.
 13.5100002   8869927.
 13.6999998   8871534.
 13.8900003   8873144.
 14.0799999   8874753.
 14.2700005   8876359.
 14.46   8877965.
 14.6499996   8879568.
 14.8400002   8881168.
 15.0299997   8882766.
 15.2200003   8884366.
 15.4099998   8885971.
 15.6000004   8887578.
 15.79   8889189.
 15.9799995   8890802.
 16.1700001   8892416.
 16.3600006   8894028.
 16.5499992   8895642.
 16.7399998   8897258.
 16.9300003   8898876.
 17.1200008   8900499.
 17.3099995   8902122.
 17.5   8903745.
 17.6900005   8905362.
 17.8799992   8906976.
 18.0699997   8908586.
 18.2600002   8910192.
 18.4500008   8911804.
 18.6399994   8913417.
 18.8299999   8915028.
 19.0200005   8916641.
 19.2099991   8918251.
 19.3999996   8919858.
 19.5900002   8921463.
 19.7800007   8923067.
 19.9699993   8924672.
 20.1599998   8926276.
 20.3500004   8927877.
 20.5400009   8929478.
 20.7299995   8931078.
 20.9200001   8932683.
 21.1100006   8934297.
 21.2999992   8935916.
 21.4899998   8937536.
 21.6800003   8939153.
 21.8700008   8940756.
 22.0599995   8942347.
 22.25   8943929.
 22.4400005   8945508.
 22.6299992   8947091.
 22.8199997   8948683.
 23.0100002   8950280.
 23.2000008   8951877.
 23.3899994   8953469.
 23.5799999   8955054.
 23.7700005   8956635.
 23.9599991   8958216.
 24.1499996   8959803.
 24.3400002   8961389.
 24.5300007   8962977.
 24.7199993   8964563.
 24.9099998   8966144.
 25.1000004   8967723.
 25.2900009   8969302.
 25.4799995   8970887.
 25.6700001   8972482.
 25.8600006   8974080.
 26.0499992   8975679.
 26.2399998   8977271.
 26.4300003   8978856.
 26.6200008   8980431.
 26.8099995   8982001.
