 -30.   825324.375
 -29.8099995   825478.813
 -29.6200008   825625.625
 -29.4300003   825769.125
 -29.2399998   825915.438
 -29.0499992   826066.375
 -28.8600006   826220.938
 -28.6700001   826374.063
 -28.4799995   826522.25
 -28.2900009   826667.25
 -28.1000004   826814.313
 -27.9099998   826961.063
 -27.7199993   827113.75
 -27.5300007   827272.063
 -27.3400002   827430.813
 -27.1499996   827591.438
 -26.9599991   827748.625
 -26.7700005   827905.875
 -26.5799999   828067.813
 -26.3899994   828237.5
 -26.2000008   828419.063
 -26.0100002   828610.5
 -25.8199997   828809.063
 -25.6299992   829005.75
 -25.4400005   829196.688
 -25.25   829377.625
 -25.0599995   829553.75
 -24.8700008   829727.
 -24.6800003   829899.438
 -24.4899998   830074.75
 -24.2999992   830251.438
 -24.1100006   830425.625
 -23.9200001   830596.25
 -23.7299995   830763.063
 -23.5400009   830925.188
 -23.3500004   831088.5
 -23.1599998   831255.75
 -22.9699993   831425.313
 -22.7800007   831595.125
 -22.5900002   831763.75
 -22.3999996   831928.063
 -22.2099991   832085.125
 -22.0200005   832239.375
 -21.8299999   832393.75
 -21.6399994   832550.375
 -21.4500008   832713.313
 -21.2600002   832881.125
 -21.0699997   833051.375
 -20.8799992   833224.5
 -20.6900005   833399.688
 -20.5   833576.563
 -20.3099995   833758.313
 -20.1200008   833943.25
 -19.9300003   834131.688
 -19.7399998   834320.188
 -19.5499992   834504.063
 -19.3600006   834680.375
 -19.1700001   834851.313
 -18.9799995   835016.125
 -18.7900009   835177.625
 -18.6000004   835337.
 -18.4099998   835495.188
 -18.2199993   835651.75
 -18.0300007   835806.688
 -17.8400002   835955.688
 -17.6499996   836102.188
 -17.4599991   836247.
 -17.2700005   836393.063
 -17.0799999   836543.938
 -16.8899994   836697.938
 -16.7000008   836854.563
 -16.5100002   837012.75
 -16.3199997   837171.188
 -16.1299992   837331.125
 -15.9399996   837493.
 -15.75   837655.813
 -15.5600004   837817.875
 -15.3699999   837979.188
 -15.1800003   838140.75
 -14.9899998   838302.063
 -14.8000002   838464.188
 -14.6099997   838633.438
 -14.4200001   838809.75
 -14.2299995   838995.938
 -14.04   839188.938
 -13.8500004   839389.5
 -13.6599998   839588.813
 -13.4700003   839791.375
 -13.2799997   839991.125
 -13.0900002   840189.375
 -12.8999996   840386.25
 -12.71   840583.063
 -12.5200005   840777.688
 -12.3299999   840968.938
 -12.1400003   841158.75
 -11.9499998   841344.813
 -11.7600002   841530.375
 -11.5699997   841715.625
 -11.3800001   841903.313
 -11.1899996   842093.375
 -11.   842286.5
 -10.8100004   842482.063
 -10.6199999   842683.375
 -10.4300003   842891.125
 -10.2399998   843106.125
 -10.0500002   843330.
 -9.85999966   843560.5
 -9.67000008   843791.
 -9.47999954   844018.688
 -9.28999996   844240.625
 -9.10000038   844454.313
 -8.90999985   844661.375
 -8.72000027   844862.
 -8.52999973   845057.125
 -8.34000015   845246.438
 -8.14999962   845425.125
 -7.96000004   845592.
 -7.76999998   845747.125
 -7.57999992   845896.75
 -7.38999987   846043.438
 -7.19999981   846196.313
 -7.01000023   846354.563
 -6.82000017   846515.438
 -6.63000011   846677.25
 -6.44000006   846832.188
 -6.25   846980.188
 -6.05999994   847124.563
 -5.86999989   847264.375
 -5.67999983   847404.438
 -5.48999977   847548.75
 -5.30000019   847689.813
 -5.11000013   847828.625
 -4.92000008   847960.875
 -4.73000002   848086.063
 -4.53999996   848205.
 -4.3499999   848324.75
 -4.15999985   848442.375
 -3.97000003   848560.625
 -3.77999997   848678.438
 -3.58999991   848792.125
 -3.4000001   848904.313
 -3.21000004   849017.
 -3.01999998   849133.563
 -2.82999992   849259.25
 -2.6400001   849393.25
 -2.45000005   849535.375
 -2.25999999   849678.625
 -2.06999993   849820.438
 -1.88   849962.375
 -1.69000006   850104.75
 -1.5   850254.313
 -1.30999994   850414.188
 -1.12   850580.125
 -0.930000007   850755.
 -0.74000001   850932.688
 -0.550000012   851108.625
 -0.360000014   851289.563
 -0.170000002   851473.25
 1.999999955E-2   851670.25
 0.209999993   851880.125
 0.400000006   852099.
 0.589999974   852321.25
 0.779999971   852541.313
 0.970000029   852757.
 1.15999997   852966.625
 1.35000002   853175.
 1.53999996   853386.188
 1.73000002   853605.25
 1.91999996   853826.875
 2.1099999   854048.938
 2.29999995   854267.5
 2.49000001   854476.813
 2.68000007   854681.063
 2.86999989   854885.063
 3.05999994   855090.563
 3.25   855302.
 3.44000006   855516.75
 3.63000011   855729.5
 3.81999993   855932.688
 4.01000023   856122.438
 4.19999981   856301.5
 4.38999987   856474.75
 4.57999992   856644.375
 4.76999998   856817.625
 4.96000004   856991.875
 5.1500001   857163.563
 5.34000015   857323.25
 5.53000021   857474.188
 5.71999979   857615.75
 5.90999985   857754.875
 6.0999999   857899.063
 6.28999996   858050.938
 6.48000002   858208.438
 6.67000008   858368.5
 6.86000013   858526.938
 7.05000019   858681.688
 7.23999977   858837.
 7.42999983   858997.563
 7.61999989   859167.125
 7.80999994   859342.25
 8.   859519.875
 8.18999958   859692.75
 8.38000011   859855.
 8.56999969   860005.688
 8.76000023   860150.75
 8.94999981   860293.625
 9.14000034   860442.375
 9.32999992   860597.5
 9.52000046   860760.875
 9.71000004   860927.688
 9.89999962   861090.5
 10.0900002   861250.938
 10.2799997   861409.938
 10.4700003   861574.188
 10.6599998   861747.563
 10.8500004   861931.625
 11.04   862122.563
 11.2299995   862314.75
 11.4200001   862500.
 11.6099997   862676.125
 11.8000002   862845.938
 11.9899998   863012.938
 12.1800003   863182.688
 12.3699999   863360.75
 12.5600004   863544.313
 12.75   863731.5
 12.9399996   863917.875
 13.1300001   864098.125
 13.3199997   864275.188
 13.5100002   864449.313
 13.6999998   864626.438
 13.8900003   864807.313
 14.0799999   864992.25
 14.2700005   865179.188
 14.46   865361.188
 14.6499996   865541.063
 14.8400002   865717.063
 15.0299997   865893.188
 15.2200003   866073.438
 15.4099998   866258.688
 15.6000004   866447.813
 15.79   866637.563
 15.9799995   866822.688
 16.1700001   866998.313
 16.3600006   867170.438
 16.5499992   867339.875
 16.7399998   867512.938
 16.9300003   867696.375
 17.1200008   867887.875
 17.3099995   868082.75
 17.5   868276.813
 17.6900005   868463.625
 17.8799992   868639.625
 18.0699997   868810.563
 18.2600002   868979.813
 18.4500008   869155.25
 18.6399994   869337.5
 18.8299999   869522.188
 19.0200005   869704.813
 19.2099991   869881.438
 19.3999996   870045.188
 19.5900002   870198.188
 19.7800007   870347.563
 19.9699993   870501.438
 20.1599998   870660.75
 20.3500004   870830.125
 20.5400009   871006.
 20.7299995   871180.313
 20.9200001   871351.188
 21.1100006   871519.5
 21.2999992   871685.438
 21.4899998   871859.75
 21.6800003   872037.125
 21.8700008   872219.313
 22.0599995   872402.125
 22.25   872580.875
 22.4400005   872754.625
 22.6299992   872922.188
 22.8199997   873089.563
 23.0100002   873260.563
 23.2000008   873438.25
 23.3899994   873618.063
 23.5799999   873796.063
 23.7700005   873967.625
 23.9599991   874129.875
 24.1499996   874289.25
 24.3400002   874450.375
 24.5300007   874622.
 24.7199993   874804.875
 24.9099998   874999.
 25.1000004   875194.563
 25.2900009   875387.25
 25.4799995   875570.813
 25.6700001   875744.438
 25.8600006   875915.375
 26.0499992   876088.75
 26.2399998   876269.688
 26.4300003   876459.125
 26.6200008   876653.313
 26.8099995   876847.375
