 -30.   7010719.
 -29.8099995   7012153.5
 -29.6200008   7013590.5
 -29.4300003   7015028.
 -29.2399998   7016463.5
 -29.0499992   7017899.
 -28.8600006   7019332.
 -28.6700001   7020762.
 -28.4799995   7022194.
 -28.2900009   7023624.5
 -28.1000004   7025057.
 -27.9099998   7026488.5
 -27.7199993   7027921.
 -27.5300007   7029352.
 -27.3400002   7030782.
 -27.1499996   7032210.5
 -26.9599991   7033641.
 -26.7700005   7035073.
 -26.5799999   7036507.
 -26.3899994   7037945.5
 -26.2000008   7039386.5
 -26.0100002   7040828.5
 -25.8199997   7042268.5
 -25.6299992   7043701.
 -25.4400005   7045129.5
 -25.25   7046552.
 -25.0599995   7047972.
 -24.8700008   7049392.5
 -24.6800003   7050818.
 -24.4899998   7052249.
 -24.2999992   7053685.
 -24.1100006   7055122.
 -23.9200001   7056554.5
 -23.7299995   7057981.5
 -23.5400009   7059396.5
 -23.3500004   7060802.
 -23.1599998   7062200.5
 -22.9699993   7063596.5
 -22.7800007   7064997.
 -22.5900002   7066405.5
 -22.3999996   7067827.5
 -22.2099991   7069260.5
 -22.0200005   7070701.
 -21.8299999   7072143.5
 -21.6399994   7073579.5
 -21.4500008   7075007.5
 -21.2600002   7076424.
 -21.0699997   7077837.5
 -20.8799992   7079252.5
 -20.6900005   7080675.5
 -20.5   7082108.5
 -20.3099995   7083549.5
 -20.1200008   7084989.5
 -19.9300003   7086417.
 -19.7399998   7087827.
 -19.5499992   7089214.5
 -19.3600006   7090589.
 -19.1700001   7091955.5
 -18.9799995   7093325.5
 -18.7900009   7094710.
 -18.6000004   7096108.
 -18.4099998   7097519.5
 -18.2199993   7098939.
 -18.0300007   7100357.5
 -17.8400002   7101774.
 -17.6499996   7103186.5
 -17.4599991   7104596.
 -17.2700005   7106009.
 -17.0799999   7107426.
 -16.8899994   7108853.
 -16.7000008   7110291.
 -16.5100002   7111734.
 -16.3199997   7113182.
 -16.1299992   7114629.5
 -15.9399996   7116073.5
 -15.75   7117510.5
 -15.5600004   7118936.5
 -15.3699999   7120354.
 -15.1800003   7121760.5
 -14.9899998   7123159.5
 -14.8000002   7124551.
 -14.6099997   7125938.5
 -14.4200001   7127325.
 -14.2299995   7128714.5
 -14.04   7130108.
 -13.8500004   7131507.5
 -13.6599998   7132913.5
 -13.4700003   7134323.
 -13.2799997   7135735.5
 -13.0900002   7137147.
 -12.8999996   7138553.5
 -12.71   7139955.5
 -12.5200005   7141356.
 -12.3299999   7142754.
 -12.1400003   7144153.
 -11.9499998   7145553.
 -11.7600002   7146955.5
 -11.5699997   7148360.
 -11.3800001   7149767.
 -11.1899996   7151172.
 -11.   7152578.
 -10.8100004   7153980.
 -10.6199999   7155377.5
 -10.4300003   7156778.
 -10.2399998   7158177.
 -10.0500002   7159576.5
 -9.85999966   7160977.
 -9.67000008   7162374.5
 -9.47999954   7163769.
 -9.28999996   7165152.
 -9.10000038   7166529.5
 -8.90999985   7167899.
 -8.72000027   7169266.
 -8.52999973   7170637.
 -8.34000015   7172013.
 -8.14999962   7173395.5
 -7.96000004   7174787.5
 -7.76999998   7176180.5
 -7.57999992   7177575.
 -7.38999987   7178966.
 -7.19999981   7180353.
 -7.01000023   7181739.
 -6.82000017   7183123.
 -6.63000011   7184509.
 -6.44000006   7185901.
 -6.25   7187299.5
 -6.05999994   7188701.5
 -5.86999989   7190107.
 -5.67999983   7191510.
 -5.48999977   7192908.
 -5.30000019   7194293.5
 -5.11000013   7195667.
 -4.92000008   7197030.5
 -4.73000002   7198387.
 -4.53999996   7199743.5
 -4.3499999   7201106.5
 -4.15999985   7202479.
 -3.97000003   7203857.5
 -3.77999997   7205240.
 -3.58999991   7206621.5
 -3.4000001   7207992.
 -3.21000004   7209358.5
 -3.01999998   7210719.5
 -2.82999992   7212081.
 -2.6400001   7213447.5
 -2.45000005   7214824.5
 -2.25999999   7216205.
 -2.06999993   7217589.5
 -1.88   7218972.5
 -1.69000006   7220353.5
 -1.5   7221729.5
 -1.30999994   7223104.5
 -1.12   7224476.
 -0.930000007   7225847.5
 -0.74000001   7227218.5
 -0.550000012   7228586.
 -0.360000014   7229954.
 -0.170000002   7231322.5
 1.999999955E-2   7232693.
 0.209999993   7234066.
 0.400000006   7235441.5
 0.589999974   7236814.5
 0.779999971   7238184.5
 0.970000029   7239549.5
 1.15999997   7240909.5
 1.35000002   7242267.
 1.53999996   7243626.5
 1.73000002   7244988.
 1.91999996   7246350.
 2.1099999   7247709.
 2.29999995   7249065.
 2.49000001   7250413.
 2.68000007   7251756.
 2.86999989   7253099.5
 3.05999994   7254443.5
 3.25   7255794.5
 3.44000006   7257155.
 3.63000011   7258519.5
 3.81999993   7259888.5
 4.01000023   7261254.5
 4.19999981   7262618.
 4.38999987   7263977.5
 4.57999992   7265336.
 4.76999998   7266694.
 4.96000004   7268049.5
 5.1500001   7269407.
 5.34000015   7270761.
 5.53000021   7272113.5
 5.71999979   7273460.5
 5.90999985   7274803.
 6.0999999   7276143.
 6.28999996   7277475.5
 6.48000002   7278807.
 6.67000008   7280134.
 6.86000013   7281460.
 7.05000019   7282783.
 7.23999977   7284112.
 7.42999983   7285439.5
 7.61999989   7286773.
 7.80999994   7288110.
 8.   7289449.5
 8.18999958   7290791.5
 8.38000011   7292133.5
 8.56999969   7293476.5
 8.76000023   7294818.5
 8.94999981   7296159.
 9.14000034   7297496.5
 9.32999992   7298834.5
 9.52000046   7300175.
 9.71000004   7301520.
 9.89999962   7302871.
 10.0900002   7304225.5
 10.2799997   7305583.5
 10.4700003   7306940.
 10.6599998   7308293.
 10.8500004   7309642.
 11.04   7310987.
 11.2299995   7312331.5
 11.4200001   7313678.5
 11.6099997   7315027.5
 11.8000002   7316376.5
 11.9899998   7317724.5
 12.1800003   7319072.5
 12.3699999   7320416.
 12.5600004   7321756.5
 12.75   7323093.
 12.9399996   7324427.5
 13.1300001   7325759.5
 13.3199997   7327090.5
 13.5100002   7328415.5
 13.6999998   7329740.
 13.8900003   7331064.
 14.0799999   7332389.5
 14.2700005   7333715.5
 14.46   7335043.
 14.6499996   7336368.
 14.8400002   7337691.
 15.0299997   7339012.
 15.2200003   7340329.
 15.4099998   7341649.
 15.6000004   7342972.5
 15.79   7344305.
 15.9799995   7345642.
 16.1700001   7346981.
 16.3600006   7348317.
 16.5499992   7349646.
 16.7399998   7350967.5
 16.9300003   7352286.
 17.1200008   7353604.5
 17.3099995   7354926.
 17.5   7356251.5
 17.6900005   7357581.5
 17.8799992   7358911.
 18.0699997   7360241.
 18.2600002   7361569.5
 18.4500008   7362899.
 18.6399994   7364228.5
 18.8299999   7365556.
 19.0200005   7366881.
 19.2099991   7368202.5
 19.3999996   7369517.5
 19.5900002   7370828.
 19.7800007   7372137.
 19.9699993   7373444.5
 20.1599998   7374751.5
 20.3500004   7376057.
 20.5400009   7377359.
 20.7299995   7378657.
 20.9200001   7379953.5
 21.1100006   7381252.
 21.2999992   7382554.5
 21.4899998   7383865.5
 21.6800003   7385182.5
 21.8700008   7386504.5
 22.0599995   7387829.
 22.25   7389154.5
 22.4400005   7390481.5
 22.6299992   7391811.
 22.8199997   7393138.5
 23.0100002   7394462.5
 23.2000008   7395778.
 23.3899994   7397083.5
 23.5799999   7398377.
 23.7700005   7399665.5
 23.9599991   7400951.5
 24.1499996   7402241.
 24.3400002   7403537.5
 24.5300007   7404842.5
 24.7199993   7406148.
 24.9099998   7407449.
 25.1000004   7408747.5
 25.2900009   7410038.5
 25.4799995   7411328.5
 25.6700001   7412620.
 25.8600006   7413916.5
 26.0499992   7415220.5
 26.2399998   7416529.5
 26.4300003   7417841.5
 26.6200008   7419152.
 26.8099995   7420456.5
