 -30.   6144129.5
 -29.8099995   6145374.5
 -29.6200008   6146608.5
 -29.4300003   6147842.
 -29.2399998   6149074.5
 -29.0499992   6150312.
 -28.8600006   6151553.
 -28.6700001   6152802.
 -28.4799995   6154055.5
 -28.2900009   6155309.5
 -28.1000004   6156557.
 -27.9099998   6157800.
 -27.7199993   6159032.5
 -27.5300007   6160259.
 -27.3400002   6161479.5
 -27.1499996   6162703.
 -26.9599991   6163931.5
 -26.7700005   6165168.
 -26.5799999   6166415.5
 -26.3899994   6167670.
 -26.2000008   6168928.5
 -26.0100002   6170185.5
 -25.8199997   6171435.5
 -25.6299992   6172678.
 -25.4400005   6173907.
 -25.25   6175127.
 -25.0599995   6176347.5
 -24.8700008   6177570.
 -24.6800003   6178803.
 -24.4899998   6180048.5
 -24.2999992   6181309.5
 -24.1100006   6182579.5
 -23.9200001   6183853.
 -23.7299995   6185119.5
 -23.5400009   6186378.5
 -23.3500004   6187627.
 -23.1599998   6188861.5
 -22.9699993   6190091.5
 -22.7800007   6191326.
 -22.5900002   6192569.5
 -22.3999996   6193827.5
 -22.2099991   6195101.
 -22.0200005   6196383.5
 -21.8299999   6197666.
 -21.6399994   6198939.5
 -21.4500008   6200197.
 -21.2600002   6201440.
 -21.0699997   6202670.
 -20.8799992   6203892.
 -20.6900005   6205112.
 -20.5   6206337.
 -20.3099995   6207565.
 -20.1200008   6208802.5
 -19.9300003   6210041.
 -19.7399998   6211277.5
 -19.5499992   6212508.
 -19.3600006   6213730.
 -19.1700001   6214943.5
 -18.9799995   6216150.5
 -18.7900009   6217353.5
 -18.6000004   6218558.5
 -18.4099998   6219768.5
 -18.2199993   6220982.5
 -18.0300007   6222210.
 -17.8400002   6223451.
 -17.6499996   6224703.5
 -17.4599991   6225963.
 -17.2700005   6227226.
 -17.0799999   6228483.5
 -16.8899994   6229734.5
 -16.7000008   6230974.
 -16.5100002   6232203.
 -16.3199997   6233424.5
 -16.1299992   6234639.
 -15.9399996   6235855.5
 -15.75   6237074.
 -15.5600004   6238296.5
 -15.3699999   6239526.5
 -15.1800003   6240760.
 -14.9899998   6241989.5
 -14.8000002   6243214.5
 -14.6099997   6244431.5
 -14.4200001   6245642.5
 -14.2299995   6246853.
 -14.04   6248066.
 -13.8500004   6249283.
 -13.6599998   6250507.
 -13.4700003   6251740.5
 -13.2799997   6252977.
 -13.0900002   6254211.5
 -12.8999996   6255444.5
 -12.71   6256667.
 -12.5200005   6257879.5
 -12.3299999   6259089.
 -12.1400003   6260294.
 -11.9499998   6261504.5
 -11.7600002   6262724.
 -11.5699997   6263951.
 -11.3800001   6265188.
 -11.1899996   6266427.5
 -11.   6267667.5
 -10.8100004   6268905.
 -10.6199999   6270136.5
 -10.4300003   6271360.5
 -10.2399998   6272577.
 -10.0500002   6273791.5
 -9.85999966   6275006.
 -9.67000008   6276225.5
 -9.47999954   6277452.5
 -9.28999996   6278685.5
 -9.10000038   6279918.5
 -8.90999985   6281150.
 -8.72000027   6282374.5
 -8.52999973   6283594.5
 -8.34000015   6284807.
 -8.14999962   6286014.5
 -7.96000004   6287219.5
 -7.76999998   6288424.
 -7.57999992   6289632.
 -7.38999987   6290843.5
 -7.19999981   6292060.5
 -7.01000023   6293277.5
 -6.82000017   6294492.5
 -6.63000011   6295707.
 -6.44000006   6296917.5
 -6.25   6298130.5
 -6.05999994   6299346.5
 -5.86999989   6300565.
 -5.67999983   6301787.5
 -5.48999977   6303014.
 -5.30000019   6304239.5
 -5.11000013   6305459.5
 -4.92000008   6306677.
 -4.73000002   6307886.5
 -4.53999996   6309087.
 -4.3499999   6310284.
 -4.15999985   6311477.5
 -3.97000003   6312672.5
 -3.77999997   6313867.
 -3.58999991   6315064.5
 -3.4000001   6316262.5
 -3.21000004   6317460.5
 -3.01999998   6318654.5
 -2.82999992   6319848.
 -2.6400001   6321043.
 -2.45000005   6322241.
 -2.25999999   6323443.5
 -2.06999993   6324652.5
 -1.88   6325863.5
 -1.69000006   6327075.5
 -1.5   6328288.
 -1.30999994   6329496.
 -1.12   6330699.5
 -0.930000007   6331897.5
 -0.74000001   6333094.
 -0.550000012   6334291.
 -0.360000014   6335492.5
 -0.170000002   6336695.5
 1.999999955E-2   6337905.
 0.209999993   6339114.5
 0.400000006   6340320.
 0.589999974   6341523.
 0.779999971   6342720.
 0.970000029   6343910.
 1.15999997   6345099.
 1.35000002   6346289.
 1.53999996   6347482.5
 1.73000002   6348684.
 1.91999996   6349887.5
 2.1099999   6351094.5
 2.29999995   6352301.
 2.49000001   6353503.
 2.68000007   6354697.5
 2.86999989   6355885.
 3.05999994   6357066.
 3.25   6358243.5
 3.44000006   6359425.
 3.63000011   6360609.5
 3.81999993   6361796.5
 4.01000023   6362989.5
 4.19999981   6364185.
 4.38999987   6365383.5
 4.57999992   6366587.
 4.76999998   6367789.5
 4.96000004   6368988.5
 5.1500001   6370185.
 5.34000015   6371376.
 5.53000021   6372565.5
 5.71999979   6373753.
 5.90999985   6374938.
 6.0999999   6376122.5
 6.28999996   6377309.
 6.48000002   6378498.5
 6.67000008   6379691.5
 6.86000013   6380894.5
 7.05000019   6382099.
 7.23999977   6383307.5
 7.42999983   6384519.
 7.61999989   6385728.
 7.80999994   6386934.5
 8.   6388144.
 8.18999958   6389351.5
 8.38000011   6390558.
 8.56999969   6391764.
 8.76000023   6392969.5
 8.94999981   6394172.
 9.14000034   6395373.5
 9.32999992   6396568.5
 9.52000046   6397759.5
 9.71000004   6398941.5
 9.89999962   6400114.
 10.0900002   6401284.5
 10.2799997   6402457.
 10.4700003   6403632.5
 10.6599998   6404813.
 10.8500004   6406000.5
 11.04   6407192.5
 11.2299995   6408383.
 11.4200001   6409576.5
 11.6099997   6410767.5
 11.8000002   6411951.5
 11.9899998   6413130.
 12.1800003   6414307.
 12.3699999   6415484.5
 12.5600004   6416667.5
 12.75   6417859.5
 12.9399996   6419053.
 13.1300001   6420251.
 13.3199997   6421446.5
 13.5100002   6422635.
 13.6999998   6423819.
 13.8900003   6424997.5
 14.0799999   6426171.
 14.2700005   6427343.5
 14.46   6428519.5
 14.6499996   6429702.5
 14.8400002   6430893.
 15.0299997   6432092.
 15.2200003   6433292.
 15.4099998   6434489.
 15.6000004   6435680.5
 15.79   6436861.5
 15.9799995   6438039.
 16.1700001   6439213.
 16.3600006   6440386.5
 16.5499992   6441557.5
 16.7399998   6442728.5
 16.9300003   6443897.5
 17.1200008   6445063.
 17.3099995   6446226.
 17.5   6447381.
 17.6900005   6448531.
 17.8799992   6449675.
 18.0699997   6450813.
 18.2600002   6451948.5
 18.4500008   6453086.5
 18.6399994   6454225.
 18.8299999   6455363.5
 19.0200005   6456508.5
 19.2099991   6457659.
 19.3999996   6458816.5
 19.5900002   6459981.5
 19.7800007   6461150.
 19.9699993   6462316.5
 20.1599998   6463481.5
 20.3500004   6464639.5
 20.5400009   6465792.5
 20.7299995   6466941.
 20.9200001   6468093.
 21.1100006   6469246.
 21.2999992   6470402.5
 21.4899998   6471563.
 21.6800003   6472726.5
 21.8700008   6473886.5
 22.0599995   6475041.5
 22.25   6476184.
 22.4400005   6477311.5
 22.6299992   6478428.
 22.8199997   6479535.5
 23.0100002   6480638.
 23.2000008   6481744.
 23.3899994   6482858.
 23.5799999   6483978.5
 23.7700005   6485107.5
 23.9599991   6486245.5
 24.1499996   6487385.5
 24.3400002   6488527.5
 24.5300007   6489664.
 24.7199993   6490793.
 24.9099998   6491918.
 25.1000004   6493039.5
 25.2900009   6494164.5
 25.4799995   6495292.5
 25.6700001   6496428.
 25.8600006   6497567.5
 26.0499992   6498711.5
 26.2399998   6499857.5
 26.4300003   6501000.5
 26.6200008   6502142.
 26.8099995   6503278.5
