 -30.   2243172.
 -29.8099995   2243694.5
 -29.6200008   2244234.25
 -29.4300003   2244735.75
 -29.2399998   2245191.25
 -29.0499992   2245642.5
 -28.8600006   2246142.
 -28.6700001   2246690.
 -28.4799995   2247251.5
 -28.2900009   2247768.
 -28.1000004   2248225.25
 -27.9099998   2248666.5
 -27.7199993   2249144.25
 -27.5300007   2249678.25
 -27.3400002   2250233.25
 -27.1499996   2250753.75
 -26.9599991   2251220.
 -26.7700005   2251660.5
 -26.5799999   2252127.
 -26.3899994   2252648.
 -26.2000008   2253198.25
 -26.0100002   2253722.5
 -25.8199997   2254194.5
 -25.6299992   2254644.5
 -25.4400005   2255120.5
 -25.25   2255651.5
 -25.0599995   2256216.25
 -24.8700008   2256762.75
 -24.6800003   2257256.75
 -24.4899998   2257714.5
 -24.2999992   2258187.25
 -24.1100006   2258710.75
 -23.9200001   2259269.5
 -23.7299995   2259813.75
 -23.5400009   2260307.5
 -23.3500004   2260762.
 -23.1599998   2261227.25
 -22.9699993   2261743.
 -22.7800007   2262294.75
 -22.5900002   2262840.25
 -22.3999996   2263337.75
 -22.2099991   2263786.75
 -22.0200005   2264235.25
 -21.8299999   2264726.25
 -21.6399994   2265257.25
 -21.4500008   2265786.25
 -21.2600002   2266266.
 -21.0699997   2266695.5
 -20.8799992   2267118.75
 -20.6900005   2267581.5
 -20.5   2268092.25
 -20.3099995   2268615.5
 -20.1200008   2269099.5
 -19.9300003   2269532.25
 -19.7399998   2269953.75
 -19.5499992   2270414.
 -19.3600006   2270927.25
 -19.1700001   2271458.25
 -18.9799995   2271952.75
 -18.7900009   2272390.5
 -18.6000004   2272812.25
 -18.4099998   2273265.5
 -18.2199993   2273775.75
 -18.0300007   2274309.75
 -17.8400002   2274813.5
 -17.6499996   2275263.75
 -17.4599991   2275682.5
 -17.2700005   2276125.75
 -17.0799999   2276618.75
 -16.8899994   2277137.
 -16.7000008   2277630.75
 -16.5100002   2278068.5
 -16.3199997   2278473.
 -16.1299992   2278893.25
 -15.9399996   2279366.
 -15.75   2279873.75
 -15.5600004   2280368.
 -15.3699999   2280812.
 -15.1800003   2281217.75
 -14.9899998   2281633.25
 -14.8000002   2282096.75
 -14.6099997   2282595.5
 -14.4200001   2283082.75
 -14.2299995   2283523.5
 -14.04   2283928.5
 -13.8500004   2284335.25
 -13.6599998   2284790.5
 -13.4700003   2285288.25
 -13.2799997   2285787.5
 -13.0900002   2286250.
 -12.8999996   2286665.75
 -12.71   2287076.25
 -12.5200005   2287523.
 -12.3299999   2288014.25
 -12.1400003   2288512.5
 -11.9499998   2288971.75
 -11.7600002   2289381.25
 -11.5699997   2289774.5
 -11.3800001   2290201.25
 -11.1899996   2290673.25
 -11.   2291163.25
 -10.8100004   2291626.
 -10.6199999   2292045.75
 -10.4300003   2292447.75
 -10.2399998   2292883.25
 -10.0500002   2293366.75
 -9.85999966   2293869.75
 -9.67000008   2294347.
 -9.47999954   2294772.25
 -9.28999996   2295168.
 -9.10000038   2295582.5
 -8.90999985   2296043.25
 -8.72000027   2296534.5
 -8.52999973   2297009.75
 -8.34000015   2297440.
 -8.14999962   2297845.75
 -7.96000004   2298267.25
 -7.76999998   2298732.75
 -7.57999992   2299232.5
 -7.38999987   2299722.75
 -7.19999981   2300173.5
 -7.01000023   2300594.75
 -6.82000017   2301030.75
 -6.63000011   2301511.
 -6.44000006   2302024.75
 -6.25   2302534.75
 -6.05999994   2303007.
 -5.86999989   2303442.
 -5.67999983   2303879.75
 -5.48999977   2304354.25
 -5.30000019   2304867.25
 -5.11000013   2305385.5
 -4.92000008   2305873.5
 -4.73000002   2306327.
 -4.53999996   2306781.75
 -4.3499999   2307270.75
 -4.15999985   2307802.
 -3.97000003   2308344.25
 -3.77999997   2308858.25
 -3.58999991   2309331.5
 -3.4000001   2309793.5
 -3.21000004   2310282.5
 -3.01999998   2310812.5
 -2.82999992   2311356.
 -2.6400001   2311878.
 -2.45000005   2312360.5
 -2.25999999   2312824.
 -2.06999993   2313307.75
 -1.88   2313834.75
 -1.69000006   2314381.25
 -1.5   2314912.25
 -1.30999994   2315404.25
 -1.12   2315873.25
 -0.930000007   2316360.
 -0.74000001   2316889.
 -0.550000012   2317444.5
 -0.360000014   2317990.25
 -0.170000002   2318496.75
 1.999999955E-2   2318972.25
 0.209999993   2319454.75
 0.400000006   2319972.5
 0.589999974   2320518.
 0.779999971   2321057.25
 0.970000029   2321559.25
 1.15999997   2322031.5
 1.35000002   2322502.75
 1.53999996   2323006.5
 1.73000002   2323543.25
 1.91999996   2324083.5
 2.1099999   2324590.75
 2.29999995   2325064.75
 2.49000001   2325540.5
 2.68000007   2326049.75
 2.86999989   2326599.
 3.05999994   2327156.25
 3.25   2327686.25
 3.44000006   2328180.
 3.63000011   2328665.5
 3.81999993   2329174.
 4.01000023   2329715.
 4.19999981   2330262.5
 4.38999987   2330783.5
 4.57999992   2331264.5
 4.76999998   2331729.5
 4.96000004   2332218.5
 5.1500001   2332744.75
 5.34000015   2333285.75
 5.53000021   2333804.
 5.71999979   2334286.5
 5.90999985   2334747.75
 6.0999999   2335231.
 6.28999996   2335756.75
 6.48000002   2336301.
 6.67000008   2336825.
 6.86000013   2337304.75
 7.05000019   2337754.75
 7.23999977   2338213.
 7.42999983   2338702.5
 7.61999989   2339209.5
 7.80999994   2339701.75
 8.   2340153.
 8.18999958   2340579.75
 8.38000011   2341020.75
 8.56999969   2341498.5
 8.76000023   2342007.5
 8.94999981   2342507.75
 9.14000034   2342975.
 9.32999992   2343418.5
 9.52000046   2343870.
 9.71000004   2344358.75
 9.89999962   2344880.5
 10.0900002   2345402.75
 10.2799997   2345892.5
 10.4700003   2346352.
 10.6599998   2346807.75
 10.8500004   2347293.75
 11.04   2347805.5
 11.2299995   2348317.5
 11.4200001   2348793.25
 11.6099997   2349232.5
 11.8000002   2349664.
 11.9899998   2350120.5
 12.1800003   2350613.
 12.3699999   2351117.75
 12.5600004   2351599.
 12.75   2352054.25
 12.9399996   2352508.
 13.1300001   2352991.75
 13.3199997   2353518.5
 13.5100002   2354063.75
 13.6999998   2354589.5
 13.8900003   2355083.
 14.0799999   2355559.25
 14.2700005   2356055.75
 14.46   2356585.25
 14.6499996   2357132.5
 14.8400002   2357664.5
 15.0299997   2358164.5
 15.2200003   2358643.25
 15.4099998   2359132.75
 15.6000004   2359652.25
 15.79   2360186.5
 15.9799995   2360707.
 16.1700001   2361192.75
 16.3600006   2361653.5
 16.5499992   2362118.75
 16.7399998   2362612.25
 16.9300003   2363128.75
 17.1200008   2363643.5
 17.3099995   2364139.75
 17.5   2364616.75
 17.6900005   2365100.75
 17.8799992   2365610.
 18.0699997   2366144.25
 18.2600002   2366677.25
 18.4500008   2367185.
 18.6399994   2367665.25
 18.8299999   2368141.5
 19.0200005   2368638.25
 19.2099991   2369155.25
 19.3999996   2369673.25
 19.5900002   2370174.75
 19.7800007   2370656.25
 19.9699993   2371140.25
 20.1599998   2371648.75
 20.3500004   2372174.75
 20.5400009   2372701.5
 20.7299995   2373208.25
 20.9200001   2373688.5
 21.1100006   2374160.25
 21.2999992   2374645.5
 21.4899998   2375154.
 21.6800003   2375667.
 21.8700008   2376169.25
 22.0599995   2376651.
 22.25   2377128.
 22.4400005   2377623.75
 22.6299992   2378140.5
 22.8199997   2378664.
 23.0100002   2379172.25
 23.2000008   2379651.
 23.3899994   2380115.
 23.5799999   2380584.25
 23.7700005   2381071.75
 23.9599991   2381567.
 24.1499996   2382048.
 24.3400002   2382502.75
 24.5300007   2382945.
 24.7199993   2383393.5
 24.9099998   2383862.5
 25.1000004   2384348.
 25.2900009   2384827.75
 25.4799995   2385285.25
 25.6700001   2385726.75
 25.8600006   2386172.75
 26.0499992   2386634.
 26.2399998   2387111.5
 26.4300003   2387590.
 26.6200008   2388050.5
 26.8099995   2388494.75
