 -30.   -8890248.
 -29.8099995   -8892057.
 -29.6200008   -8893854.
 -29.4300003   -8895652.
 -29.2399998   -8897452.
 -29.0499992   -8899253.
 -28.8600006   -8901060.
 -28.6700001   -8902870.
 -28.4799995   -8904683.
 -28.2900009   -8906495.
 -28.1000004   -8908305.
 -27.9099998   -8910108.
 -27.7199993   -8911906.
 -27.5300007   -8913698.
 -27.3400002   -8915489.
 -27.1499996   -8917284.
 -26.9599991   -8919082.
 -26.7700005   -8920890.
 -26.5799999   -8922701.
 -26.3899994   -8924515.
 -26.2000008   -8926329.
 -26.0100002   -8928137.
 -25.8199997   -8929938.
 -25.6299992   -8931734.
 -25.4400005   -8933521.
 -25.25   -8935309.
 -25.0599995   -8937099.
 -24.8700008   -8938896.
 -24.6800003   -8940703.
 -24.4899998   -8942518.
 -24.2999992   -8944330.
 -24.1100006   -8946138.
 -23.9200001   -8947934.
 -23.7299995   -8949716.
 -23.5400009   -8951488.
 -23.3500004   -8953251.
 -23.1599998   -8955019.
 -22.9699993   -8956791.
 -22.7800007   -8958579.
 -22.5900002   -8960378.
 -22.3999996   -8962188.
 -22.2099991   -8964000.
 -22.0200005   -8965807.
 -21.8299999   -8967605.
 -21.6399994   -8969389.
 -21.4500008   -8971165.
 -21.2600002   -8972933.
 -21.0699997   -8974702.
 -20.8799992   -8976474.
 -20.6900005   -8978250.
 -20.5   -8980031.
 -20.3099995   -8981815.
 -20.1200008   -8983600.
 -19.9300003   -8985384.
 -19.7399998   -8987165.
 -19.5499992   -8988939.
 -19.3600006   -8990707.
 -19.1700001   -8992474.
 -18.9799995   -8994245.
 -18.7900009   -8996024.
 -18.6000004   -8997810.
 -18.4099998   -8999607.
 -18.2199993   -9001410.
 -18.0300007   -9003217.
 -17.8400002   -9005029.
 -17.6499996   -9006838.
 -17.4599991   -9008644.
 -17.2700005   -9010444.
 -17.0799999   -9012234.
 -16.8899994   -9014018.
 -16.7000008   -9015796.
 -16.5100002   -9017573.
 -16.3199997   -9019351.
 -16.1299992   -9021133.
 -15.9399996   -9022920.
 -15.75   -9024710.
 -15.5600004   -9026501.
 -15.3699999   -9028288.
 -15.1800003   -9030069.
 -14.9899998   -9031840.
 -14.8000002   -9033600.
 -14.6099997   -9035352.
 -14.4200001   -9037101.
 -14.2299995   -9038854.
 -14.04   -9040612.
 -13.8500004   -9042378.
 -13.6599998   -9044152.
 -13.4700003   -9045930.
 -13.2799997   -9047711.
 -13.0900002   -9049490.
 -12.8999996   -9051263.
 -12.71   -9053033.
 -12.5200005   -9054795.
 -12.3299999   -9056554.
 -12.1400003   -9058307.
 -11.9499998   -9060061.
 -11.7600002   -9061819.
 -11.5699997   -9063578.
 -11.3800001   -9065340.
 -11.1899996   -9067103.
 -11.   -9068865.
 -10.8100004   -9070628.
 -10.6199999   -9072388.
 -10.4300003   -9074148.
 -10.2399998   -9075906.
 -10.0500002   -9077662.
 -9.85999966   -9079421.
 -9.67000008   -9081182.
 -9.47999954   -9082945.
 -9.28999996   -9084706.
 -9.10000038   -9086459.
 -8.90999985   -9088205.
 -8.72000027   -9089943.
 -8.52999973   -9091676.
 -8.34000015   -9093404.
 -8.14999962   -9095136.
 -7.96000004   -9096868.
 -7.76999998   -9098604.
 -7.57999992   -9100342.
 -7.38999987   -9102074.
 -7.19999981   -9103803.
 -7.01000023   -9105523.
 -6.82000017   -9107235.
 -6.63000011   -9108941.
 -6.44000006   -9110649.
 -6.25   -9112364.
 -6.05999994   -9114087.
 -5.86999989   -9115826.
 -5.67999983   -9117576.
 -5.48999977   -9119333.
 -5.30000019   -9121093.
 -5.11000013   -9122850.
 -4.92000008   -9124602.
 -4.73000002   -9126349.
 -4.53999996   -9128093.
 -4.3499999   -9129833.
 -4.15999985   -9131579.
 -3.97000003   -9133331.
 -3.77999997   -9135083.
 -3.58999991   -9136837.
 -3.4000001   -9138589.
 -3.21000004   -9140333.
 -3.01999998   -9142069.
 -2.82999992   -9143801.
 -2.6400001   -9145530.
 -2.45000005   -9147263.
 -2.25999999   -9149000.
 -2.06999993   -9150743.
 -1.88   -9152493.
 -1.69000006   -9154248.
 -1.5   -9156000.
 -1.30999994   -9157749.
 -1.12   -9159494.
 -0.930000007   -9161237.
 -0.74000001   -9162976.
 -0.550000012   -9164718.
 -0.360000014   -9166468.
 -0.170000002   -9168226.
 1.999999955E-2   -9169991.
 0.209999993   -9171764.
 0.400000006   -9173536.
 0.589999974   -9175309.
 0.779999971   -9177079.
 0.970000029   -9178842.
 1.15999997   -9180600.
 1.35000002   -9182358.
 1.53999996   -9184111.
 1.73000002   -9185868.
 1.91999996   -9187625.
 2.1099999   -9189388.
 2.29999995   -9191154.
 2.49000001   -9192922.
 2.68000007   -9194691.
 2.86999989   -9196465.
 3.05999994   -9198238.
 3.25   -9200012.
 3.44000006   -9201788.
 3.63000011   -9203566.
 3.81999993   -9205344.
 4.01000023   -9207128.
 4.19999981   -9208911.
 4.38999987   -9210696.
 4.57999992   -9212483.
 4.76999998   -9214267.
 4.96000004   -9216052.
 5.1500001   -9217837.
 5.34000015   -9219623.
 5.53000021   -9221410.
 5.71999979   -9223202.
 5.90999985   -9224996.
 6.0999999   -9226791.
 6.28999996   -9228588.
 6.48000002   -9230386.
 6.67000008   -9232184.
 6.86000013   -9233985.
 7.05000019   -9235781.
 7.23999977   -9237578.
 7.42999983   -9239371.
 7.61999989   -9241155.
 7.80999994   -9242930.
 8.   -9244699.
 8.18999958   -9246462.
 8.38000011   -9248219.
 8.56999969   -9249979.
 8.76000023   -9251739.
 8.94999981   -9253505.
 9.14000034   -9255273.
 9.32999992   -9257043.
 9.52000046   -9258810.
 9.71000004   -9260575.
 9.89999962   -9262334.
 10.0900002   -9264092.
 10.2799997   -9265852.
 10.4700003   -9267613.
 10.6599998   -9269378.
 10.8500004   -9271144.
 11.04   -9272912.
 11.2299995   -9274677.
 11.4200001   -9276436.
 11.6099997   -9278188.
 11.8000002   -9279932.
 11.9899998   -9281665.
 12.1800003   -9283386.
 12.3699999   -9285095.
 12.5600004   -9286799.
 12.75   -9288501.
 12.9399996   -9290205.
 13.1300001   -9291915.
 13.3199997   -9293632.
 13.5100002   -9295354.
 13.6999998   -9297081.
 13.8900003   -9298811.
 14.0799999   -9300539.
 14.2700005   -9302265.
 14.46   -9303987.
 14.6499996   -9305704.
 14.8400002   -9307419.
 15.0299997   -9309142.
 15.2200003   -9310868.
 15.4099998   -9312604.
 15.6000004   -9314342.
 15.79   -9316082.
 15.9799995   -9317813.
 16.1700001   -9319532.
 16.3600006   -9321234.
 16.5499992   -9322915.
 16.7399998   -9324580.
 16.9300003   -9326233.
 17.1200008   -9327884.
 17.3099995   -9329538.
 17.5   -9331199.
 17.6900005   -9332868.
 17.8799992   -9334542.
 18.0699997   -9336215.
 18.2600002   -9337882.
 18.4500008   -9339543.
 18.6399994   -9341198.
 18.8299999   -9342848.
 19.0200005   -9344500.
 19.2099991   -9346158.
 19.3999996   -9347822.
 19.5900002   -9349496.
 19.7800007   -9351178.
 19.9699993   -9352862.
 20.1599998   -9354545.
 20.3500004   -9356218.
 20.5400009   -9357885.
 20.7299995   -9359541.
 20.9200001   -9361193.
 21.1100006   -9362843.
 21.2999992   -9364491.
 21.4899998   -9366141.
 21.6800003   -9367795.
 21.8700008   -9369455.
 22.0599995   -9371122.
 22.25   -9372792.
 22.4400005   -9374465.
 22.6299992   -9376137.
 22.8199997   -9377807.
 23.0100002   -9379470.
 23.2000008   -9381120.
 23.3899994   -9382763.
 23.5799999   -9384399.
 23.7700005   -9386036.
 23.9599991   -9387678.
 24.1499996   -9389334.
 24.3400002   -9391007.
 24.5300007   -9392692.
 24.7199993   -9394385.
 24.9099998   -9396075.
 25.1000004   -9397751.
 25.2900009   -9399409.
 25.4799995   -9401050.
 25.6700001   -9402680.
 25.8600006   -9404308.
 26.0499992   -9405946.
 26.2399998   -9407597.
 26.4300003   -9409260.
 26.6200008   -9410930.
 26.8099995   -9412598.
