 -30.   8060872.
 -29.8099995   8062519.
 -29.6200008   8064168.
 -29.4300003   8065819.
 -29.2399998   8067467.
 -29.0499992   8069114.5
 -28.8600006   8070758.
 -28.6700001   8072403.
 -28.4799995   8074045.
 -28.2900009   8075688.
 -28.1000004   8077332.
 -27.9099998   8078977.
 -27.7199993   8080623.5
 -27.5300007   8082268.
 -27.3400002   8083914.
 -27.1499996   8085557.5
 -26.9599991   8087198.
 -26.7700005   8088838.5
 -26.5799999   8090479.5
 -26.3899994   8092117.5
 -26.2000008   8093755.
 -26.0100002   8095396.5
 -25.8199997   8097037.
 -25.6299992   8098677.5
 -25.4400005   8100318.5
 -25.25   8101959.
 -25.0599995   8103599.
 -24.8700008   8105238.
 -24.6800003   8106873.5
 -24.4899998   8108510.5
 -24.2999992   8110148.5
 -24.1100006   8111783.
 -23.9200001   8113419.5
 -23.7299995   8115054.
 -23.5400009   8116689.
 -23.3500004   8118326.
 -23.1599998   8119959.
 -22.9699993   8121593.
 -22.7800007   8123227.
 -22.5900002   8124860.
 -22.3999996   8126491.
 -22.2099991   8128121.5
 -22.0200005   8129752.5
 -21.8299999   8131381.5
 -21.6399994   8133009.
 -21.4500008   8134637.5
 -21.2600002   8136267.
 -21.0699997   8137892.5
 -20.8799992   8139521.
 -20.6900005   8141147.5
 -20.5   8142774.5
 -20.3099995   8144403.5
 -20.1200008   8146031.
 -19.9300003   8147657.
 -19.7399998   8149284.5
 -19.5499992   8150908.5
 -19.3600006   8152530.5
 -19.1700001   8154149.
 -18.9799995   8155770.5
 -18.7900009   8157391.5
 -18.6000004   8159012.
 -18.4099998   8160638.
 -18.2199993   8162265.
 -18.0300007   8163891.
 -17.8400002   8165515.5
 -17.6499996   8167137.
 -17.4599991   8168755.
 -17.2700005   8170371.
 -17.0799999   8171984.
 -16.8899994   8173598.
 -16.7000008   8175209.5
 -16.5100002   8176822.
 -16.3199997   8178435.
 -16.1299992   8180049.
 -15.9399996   8181663.
 -15.75   8183277.
 -15.5600004   8184891.
 -15.3699999   8186501.
 -15.1800003   8188112.5
 -14.9899998   8189721.
 -14.8000002   8191332.5
 -14.6099997   8192945.
 -14.4200001   8194556.
 -14.2299995   8196169.
 -14.04   8197782.
 -13.8500004   8199396.
 -13.6599998   8201007.
 -13.4700003   8202614.
 -13.2799997   8204217.5
 -13.0900002   8205819.
 -12.8999996   8207418.5
 -12.71   8209019.
 -12.5200005   8210620.5
 -12.3299999   8212224.
 -12.1400003   8213828.5
 -11.9499998   8215432.5
 -11.7600002   8217033.5
 -11.5699997   8218634.5
 -11.3800001   8220231.
 -11.1899996   8221826.
 -11.   8223419.5
 -10.8100004   8225012.5
 -10.6199999   8226607.5
 -10.4300003   8228202.5
 -10.2399998   8229799.5
 -10.0500002   8231392.5
 -9.85999966   8232982.
 -9.67000008   8234570.
 -9.47999954   8236153.
 -9.28999996   8237733.5
 -9.10000038   8239315.5
 -8.90999985   8240898.
 -8.72000027   8242484.5
 -8.52999973   8244071.
 -8.34000015   8245660.
 -8.14999962   8247248.
 -7.96000004   8248837.
 -7.76999998   8250423.5
 -7.57999992   8252007.
 -7.38999987   8253593.
 -7.19999981   8255175.5
 -7.01000023   8256765.
 -6.82000017   8258354.5
 -6.63000011   8259944.5
 -6.44000006   8261534.
 -6.25   8263118.
 -6.05999994   8264701.5
 -5.86999989   8266283.5
 -5.67999983   8267863.5
 -5.48999977   8269444.5
 -5.30000019   8271028.
 -5.11000013   8272618.
 -4.92000008   8274209.5
 -4.73000002   8275804.
 -4.53999996   8277395.5
 -4.3499999   8278989.
 -4.15999985   8280579.5
 -3.97000003   8282163.5
 -3.77999997   8283749.
 -3.58999991   8285332.5
 -3.4000001   8286918.
 -3.21000004   8288509.
 -3.01999998   8290103.5
 -2.82999992   8291699.
 -2.6400001   8293297.
 -2.45000005   8294892.5
 -2.25999999   8296485.5
 -2.06999993   8298074.
 -1.88   8299659.
 -1.69000006   8301241.
 -1.5   8302824.
 -1.30999994   8304407.5
 -1.12   8305993.5
 -0.930000007   8307580.5
 -0.74000001   8309168.
 -0.550000012   8310755.
 -0.360000014   8312338.
 -0.170000002   8313918.5
 1.999999955E-2   8315497.5
 0.209999993   8317078.
 0.400000006   8318660.
 0.589999974   8320240.5
 0.779999971   8321822.5
 0.970000029   8323409.
 1.15999997   8324994.
 1.35000002   8326575.
 1.53999996   8328155.
 1.73000002   8329728.5
 1.91999996   8331301.5
 2.1099999   8332871.5
 2.29999995   8334439.5
 2.49000001   8336009.
 2.68000007   8337577.
 2.86999989   8339142.5
 3.05999994   8340707.5
 3.25   8342273.
 3.44000006   8343837.
 3.63000011   8345400.5
 3.81999993   8346967.5
 4.01000023   8348534.
 4.19999981   8350100.
 4.38999987   8351668.5
 4.57999992   8353234.5
 4.76999998   8354800.
 4.96000004   8356366.
 5.1500001   8357930.5
 5.34000015   8359493.5
 5.53000021   8361061.
 5.71999979   8362628.5
 5.90999985   8364197.
 6.0999999   8365764.
 6.28999996   8367330.5
 6.48000002   8368892.
 6.67000008   8370454.5
 6.86000013   8372013.5
 7.05000019   8373571.5
 7.23999977   8375132.5
 7.42999983   8376694.
 7.61999989   8378259.
 7.80999994   8379822.5
 8.   8381388.5
 8.18999958   8382952.5
 8.38000011   8384515.5
 8.56999969   8386076.
 8.76000023   8387634.
 8.94999981   8389190.
 9.14000034   8390746.
 9.32999992   8392304.
 9.52000046   8393862.
 9.71000004   8395423.
 9.89999962   8396986.
 10.0900002   8398545.
 10.2799997   8400103.
 10.4700003   8401655.
 10.6599998   8403205.
 10.8500004   8404753.
 11.04   8406297.
 11.2299995   8407841.
 11.4200001   8409389.
 11.6099997   8410939.
 11.8000002   8412492.
 11.9899998   8414044.
 12.1800003   8415596.
 12.3699999   8417148.
 12.5600004   8418694.
 12.75   8420237.
 12.9399996   8421776.
 13.1300001   8423310.
 13.3199997   8424845.
 13.5100002   8426381.
 13.6999998   8427917.
 13.8900003   8429459.
 14.0799999   8431002.
 14.2700005   8432550.
 14.46   8434097.
 14.6499996   8435641.
 14.8400002   8437179.
 15.0299997   8438711.
 15.2200003   8440238.
 15.4099998   8441761.
 15.6000004   8443286.
 15.79   8444814.
 15.9799995   8446349.
 16.1700001   8447887.
 16.3600006   8449430.
 16.5499992   8450977.
 16.7399998   8452522.
 16.9300003   8454063.
 17.1200008   8455597.
 17.3099995   8457129.
 17.5   8458652.
 17.6900005   8460177.
 17.8799992   8461700.
 18.0699997   8463228.
 18.2600002   8464758.
 18.4500008   8466292.
 18.6399994   8467825.
 18.8299999   8469358.
 19.0200005   8470887.
 19.2099991   8472412.
 19.3999996   8473933.
 19.5900002   8475450.
 19.7800007   8476969.
 19.9699993   8478490.
 20.1599998   8480013.
 20.3500004   8481536.
 20.5400009   8483062.
 20.7299995   8484591.
 20.9200001   8486120.
 21.1100006   8487649.
 21.2999992   8489181.
 21.4899998   8490709.
 21.6800003   8492234.
 21.8700008   8493753.
 22.0599995   8495269.
 22.25   8496784.
 22.4400005   8498298.
 22.6299992   8499810.
 22.8199997   8501328.
 23.0100002   8502850.
 23.2000008   8504370.
 23.3899994   8505890.
 23.5799999   8507410.
 23.7700005   8508925.
 23.9599991   8510434.
 24.1499996   8511945.
 24.3400002   8513455.
 24.5300007   8514970.
 24.7199993   8516487.
 24.9099998   8518004.
 25.1000004   8519520.
 25.2900009   8521032.
 25.4799995   8522538.
 25.6700001   8524042.
 25.8600006   8525545.
 26.0499992   8527046.
 26.2399998   8528548.
 26.4300003   8530054.
 26.6200008   8531561.
 26.8099995   8533072.
