 -30.   1310523.5
 -29.8099995   1310770.75
 -29.6200008   1311012.75
 -29.4300003   1311267.38
 -29.2399998   1311533.75
 -29.0499992   1311803.5
 -28.8600006   1312057.5
 -28.6700001   1312297.
 -28.4799995   1312534.
 -28.2900009   1312784.13
 -28.1000004   1313053.
 -27.9099998   1313324.13
 -27.7199993   1313584.63
 -27.5300007   1313829.38
 -27.3400002   1314065.
 -27.1499996   1314312.5
 -26.9599991   1314576.13
 -26.7700005   1314846.25
 -26.5799999   1315106.5
 -26.3899994   1315349.
 -26.2000008   1315583.25
 -26.0100002   1315825.5
 -25.8199997   1316084.63
 -25.6299992   1316352.5
 -25.4400005   1316615.75
 -25.25   1316860.88
 -25.0599995   1317097.63
 -24.8700008   1317338.75
 -24.6800003   1317598.63
 -24.4899998   1317871.88
 -24.2999992   1318140.75
 -24.1100006   1318391.88
 -23.9200001   1318630.13
 -23.7299995   1318872.38
 -23.5400009   1319132.
 -23.3500004   1319406.5
 -23.1599998   1319678.63
 -22.9699993   1319937.
 -22.7800007   1320178.
 -22.5900002   1320417.13
 -22.3999996   1320673.13
 -22.2099991   1320946.5
 -22.0200005   1321221.13
 -21.8299999   1321479.75
 -21.6399994   1321726.5
 -21.4500008   1321971.88
 -21.2600002   1322231.63
 -21.0699997   1322509.38
 -20.8799992   1322792.25
 -20.6900005   1323062.38
 -20.5   1323313.63
 -20.3099995   1323560.88
 -20.1200008   1323818.38
 -19.9300003   1324092.13
 -19.7399998   1324371.25
 -19.5499992   1324640.63
 -19.3600006   1324892.25
 -19.1700001   1325135.13
 -18.9799995   1325389.38
 -18.7900009   1325660.38
 -18.6000004   1325940.5
 -18.4099998   1326213.5
 -18.2199993   1326473.5
 -18.0300007   1326720.63
 -17.8400002   1326976.5
 -17.6499996   1327245.5
 -17.4599991   1327527.13
 -17.2700005   1327802.88
 -17.0799999   1328062.25
 -16.8899994   1328308.63
 -16.7000008   1328560.5
 -16.5100002   1328828.13
 -16.3199997   1329106.75
 -16.1299992   1329386.37
 -15.9399996   1329653.25
 -15.75   1329905.63
 -15.5600004   1330156.5
 -15.3699999   1330422.38
 -15.1800003   1330701.25
 -14.9899998   1330980.5
 -14.8000002   1331247.25
 -14.6099997   1331499.5
 -14.4200001   1331747.5
 -14.2299995   1332006.25
 -14.04   1332282.5
 -13.8500004   1332560.13
 -13.6599998   1332826.88
 -13.4700003   1333079.
 -13.2799997   1333322.25
 -13.0900002   1333577.25
 -12.8999996   1333847.63
 -12.71   1334127.5
 -12.5200005   1334396.13
 -12.3299999   1334649.25
 -12.1400003   1334896.38
 -11.9499998   1335151.13
 -11.7600002   1335423.75
 -11.5699997   1335708.25
 -11.3800001   1335982.25
 -11.1899996   1336238.13
 -11.   1336482.75
 -10.8100004   1336734.38
 -10.6199999   1337001.88
 -10.4300003   1337284.38
 -10.2399998   1337561.13
 -10.0500002   1337821.63
 -9.85999966   1338069.88
 -9.67000008   1338320.5
 -9.47999954   1338590.
 -9.28999996   1338872.63
 -9.10000038   1339153.88
 -8.90999985   1339419.13
 -8.72000027   1339673.25
 -8.52999973   1339932.5
 -8.34000015   1340208.88
 -8.14999962   1340501.63
 -7.96000004   1340796.5
 -7.76999998   1341073.38
 -7.57999992   1341331.75
 -7.38999987   1341589.88
 -7.19999981   1341866.
 -7.01000023   1342161.25
 -6.82000017   1342459.88
 -6.63000011   1342746.5
 -6.44000006   1343016.5
 -6.25   1343283.13
 -6.05999994   1343567.13
 -5.86999989   1343871.88
 -5.67999983   1344180.
 -5.48999977   1344476.88
 -5.30000019   1344749.63
 -5.11000013   1345018.
 -4.92000008   1345299.5
 -4.73000002   1345603.38
 -4.53999996   1345914.63
 -4.3499999   1346209.37
 -4.15999985   1346483.25
 -3.97000003   1346747.38
 -3.77999997   1347020.
 -3.58999991   1347311.63
 -3.4000001   1347612.5
 -3.21000004   1347897.13
 -3.01999998   1348158.
 -2.82999992   1348404.88
 -2.6400001   1348662.
 -2.45000005   1348940.63
 -2.25999999   1349228.
 -2.06999993   1349507.5
 -1.88   1349763.
 -1.69000006   1350003.63
 -1.5   1350251.13
 -1.30999994   1350515.13
 -1.12   1350798.25
 -0.930000007   1351076.
 -0.74000001   1351331.25
 -0.550000012   1351576.5
 -0.360000014   1351826.
 -0.170000002   1352096.88
 1.999999955E-2   1352386.13
 0.209999993   1352670.25
 0.400000006   1352931.88
 0.589999974   1353175.13
 0.779999971   1353422.63
 0.970000029   1353686.
 1.15999997   1353970.5
 1.35000002   1354257.
 1.53999996   1354523.13
 1.73000002   1354770.
 1.91999996   1355016.13
 2.1099999   1355281.88
 2.29999995   1355566.75
 2.49000001   1355854.88
 2.68000007   1356126.
 2.86999989   1356375.13
 3.05999994   1356624.75
 3.25   1356891.5
 3.44000006   1357175.5
 3.63000011   1357468.38
 3.81999993   1357744.25
 4.01000023   1357999.25
 4.19999981   1358248.25
 4.38999987   1358516.75
 4.57999992   1358805.38
 4.76999998   1359101.75
 4.96000004   1359384.
 5.1500001   1359647.25
 5.34000015   1359901.
 5.53000021   1360173.38
 5.71999979   1360464.63
 5.90999985   1360769.
 6.0999999   1361057.25
 6.28999996   1361324.88
 6.48000002   1361583.75
 6.67000008   1361852.38
 6.86000013   1362141.
 7.05000019   1362437.88
 7.23999977   1362722.88
 7.42999983   1362985.38
 7.61999989   1363236.63
 7.80999994   1363494.75
 8.   1363773.88
 8.18999958   1364065.
 8.38000011   1364348.62
 8.56999969   1364613.5
 8.76000023   1364866.13
 8.94999981   1365122.13
 9.14000034   1365395.25
 9.32999992   1365676.38
 9.52000046   1365953.88
 9.71000004   1366210.88
 9.89999962   1366457.63
 10.0900002   1366707.88
 10.2799997   1366978.
 10.4700003   1367264.38
 10.6599998   1367550.13
 10.8500004   1367822.38
 11.04   1368080.63
 11.2299995   1368340.38
 11.4200001   1368617.13
 11.6099997   1368908.75
 11.8000002   1369200.
 11.9899998   1369474.38
 12.1800003   1369734.13
 12.3699999   1369992.63
 12.5600004   1370266.25
 12.75   1370556.25
 12.9399996   1370849.63
 13.1300001   1371132.13
 13.3199997   1371401.38
 13.5100002   1371668.13
 13.6999998   1371945.87
 13.8900003   1372233.88
 14.0799999   1372527.38
 14.2700005   1372810.13
 14.46   1373074.5
 14.6499996   1373334.13
 14.8400002   1373599.63
 15.0299997   1373879.13
 15.2200003   1374165.63
 15.4099998   1374447.25
 15.6000004   1374716.5
 15.79   1374981.63
 15.9799995   1375256.75
 16.1700001   1375543.38
 16.3600006   1375842.25
 16.5499992   1376137.88
 16.7399998   1376420.25
 16.9300003   1376694.13
 17.1200008   1376968.25
 17.3099995   1377254.
 17.5   1377550.5
 17.6900005   1377843.13
 17.8799992   1378124.13
 18.0699997   1378390.
 18.2600002   1378651.88
 18.4500008   1378921.38
 18.6399994   1379202.88
 18.8299999   1379488.13
 19.0200005   1379762.13
 19.2099991   1380024.25
 19.3999996   1380282.5
 19.5900002   1380550.75
 19.7800007   1380832.88
 19.9699993   1381125.
 20.1599998   1381408.88
 20.3500004   1381685.88
 20.5400009   1381955.25
 20.7299995   1382233.25
 20.9200001   1382522.38
 21.1100006   1382817.75
 21.2999992   1383110.5
 21.4899998   1383385.88
 21.6800003   1383647.75
 21.8700008   1383907.13
 22.0599995   1384180.38
 22.25   1384463.63
 22.4400005   1384744.5
 22.6299992   1385008.25
 22.8199997   1385263.38
 23.0100002   1385516.63
 23.2000008   1385784.75
 23.3899994   1386065.75
 23.5799999   1386348.38
 23.7700005   1386614.75
 23.9599991   1386866.
 24.1499996   1387113.13
 24.3400002   1387375.63
 24.5300007   1387657.63
 24.7199993   1387945.88
 24.9099998   1388220.63
 25.1000004   1388478.63
 25.2900009   1388727.75
 25.4799995   1388990.63
 25.6700001   1389270.75
 25.8600006   1389562.
 26.0499992   1389845.12
 26.2399998   1390110.38
 26.4300003   1390367.63
 26.6200008   1390635.38
 26.8099995   1390919.75
