 -30.   7424529.
 -29.8099995   7426045.
 -29.6200008   7427564.
 -29.4300003   7429082.
 -29.2399998   7430601.5
 -29.0499992   7432119.
 -28.8600006   7433636.
 -28.6700001   7435148.5
 -28.4799995   7436662.5
 -28.2900009   7438175.5
 -28.1000004   7439686.5
 -27.9099998   7441199.
 -27.7199993   7442711.5
 -27.5300007   7444226.
 -27.3400002   7445740.5
 -27.1499996   7447255.5
 -26.9599991   7448768.5
 -26.7700005   7450281.5
 -26.5799999   7451791.5
 -26.3899994   7453299.
 -26.2000008   7454808.
 -26.0100002   7456314.
 -25.8199997   7457818.5
 -25.6299992   7459327.5
 -25.4400005   7460834.5
 -25.25   7462345.
 -25.0599995   7463855.5
 -24.8700008   7465365.5
 -24.6800003   7466874.
 -24.4899998   7468382.
 -24.2999992   7469885.
 -24.1100006   7471388.
 -23.9200001   7472889.5
 -23.7299995   7474392.
 -23.5400009   7475892.
 -23.3500004   7477395.
 -23.1599998   7478901.
 -22.9699993   7480407.
 -22.7800007   7481912.5
 -22.5900002   7483417.
 -22.3999996   7484921.5
 -22.2099991   7486421.5
 -22.0200005   7487921.5
 -21.8299999   7489417.5
 -21.6399994   7490914.5
 -21.4500008   7492408.5
 -21.2600002   7493905.5
 -21.0699997   7495401.
 -20.8799992   7496898.5
 -20.6900005   7498397.
 -20.5   7499895.5
 -20.3099995   7501396.
 -20.1200008   7502894.5
 -19.9300003   7504391.
 -19.7399998   7505884.5
 -19.5499992   7507378.
 -19.3600006   7508868.
 -19.1700001   7510359.
 -18.9799995   7511852.
 -18.7900009   7513345.
 -18.6000004   7514840.5
 -18.4099998   7516333.5
 -18.2199993   7517827.
 -18.0300007   7519318.5
 -17.8400002   7520806.
 -17.6499996   7522289.5
 -17.4599991   7523772.5
 -17.2700005   7525255.5
 -17.0799999   7526738.
 -16.8899994   7528220.5
 -16.7000008   7529705.
 -16.5100002   7531190.
 -16.3199997   7532674.5
 -16.1299992   7534156.5
 -15.9399996   7535636.5
 -15.75   7537117.
 -15.5600004   7538595.5
 -15.3699999   7540073.
 -15.1800003   7541551.5
 -14.9899998   7543030.
 -14.8000002   7544512.
 -14.6099997   7545995.
 -14.4200001   7547478.5
 -14.2299995   7548958.5
 -14.04   7550438.
 -13.8500004   7551914.5
 -13.6599998   7553388.
 -13.4700003   7554862.
 -13.2799997   7556336.5
 -13.0900002   7557810.5
 -12.8999996   7559285.5
 -12.71   7560764.
 -12.5200005   7562240.5
 -12.3299999   7563716.
 -12.1400003   7565189.5
 -11.9499998   7566659.
 -11.7600002   7568123.5
 -11.5699997   7569589.5
 -11.3800001   7571054.5
 -11.1899996   7572518.
 -11.   7573983.5
 -10.8100004   7575448.
 -10.6199999   7576910.
 -10.4300003   7578370.5
 -10.2399998   7579830.
 -10.0500002   7581287.
 -9.85999966   7582744.5
 -9.67000008   7584203.
 -9.47999954   7585664.5
 -9.28999996   7587124.
 -9.10000038   7588588.5
 -8.90999985   7590049.
 -8.72000027   7591506.5
 -8.52999973   7592962.5
 -8.34000015   7594413.5
 -8.14999962   7595864.5
 -7.96000004   7597319.5
 -7.76999998   7598776.
 -7.57999992   7600233.
 -7.38999987   7601692.5
 -7.19999981   7603154.
 -7.01000023   7604613.5
 -6.82000017   7606071.
 -6.63000011   7607526.
 -6.44000006   7608982.
 -6.25   7610432.
 -6.05999994   7611885.5
 -5.86999989   7613340.
 -5.67999983   7614796.5
 -5.48999977   7616255.
 -5.30000019   7617716.
 -5.11000013   7619173.5
 -4.92000008   7620635.
 -4.73000002   7622095.5
 -4.53999996   7623558.
 -4.3499999   7625020.
 -4.15999985   7626481.5
 -3.97000003   7627940.5
 -3.77999997   7629398.5
 -3.58999991   7630855.
 -3.4000001   7632312.5
 -3.21000004   7633771.
 -3.01999998   7635230.5
 -2.82999992   7636692.5
 -2.6400001   7638154.
 -2.45000005   7639617.5
 -2.25999999   7641080.
 -2.06999993   7642539.
 -1.88   7643990.5
 -1.69000006   7645441.
 -1.5   7646890.
 -1.30999994   7648341.
 -1.12   7649797.5
 -0.930000007   7651257.
 -0.74000001   7652717.
 -0.550000012   7654182.5
 -0.360000014   7655640.
 -0.170000002   7657094.
 1.999999955E-2   7658541.5
 0.209999993   7659982.
 0.400000006   7661423.
 0.589999974   7662861.5
 0.779999971   7664300.
 0.970000029   7665739.
 1.15999997   7667179.5
 1.35000002   7668616.5
 1.53999996   7670053.5
 1.73000002   7671483.5
 1.91999996   7672911.
 2.1099999   7674334.
 2.29999995   7675760.5
 2.49000001   7677186.5
 2.68000007   7678616.
 2.86999989   7680048.5
 3.05999994   7681481.
 3.25   7682917.
 3.44000006   7684351.
 3.63000011   7685787.
 3.81999993   7687219.5
 4.01000023   7688647.5
 4.19999981   7690073.
 4.38999987   7691498.5
 4.57999992   7692922.5
 4.76999998   7694350.
 4.96000004   7695779.5
 5.1500001   7697208.
 5.34000015   7698639.
 5.53000021   7700069.
 5.71999979   7701499.
 5.90999985   7702925.
 6.0999999   7704347.5
 6.28999996   7705769.
 6.48000002   7707188.5
 6.67000008   7708608.
 6.86000013   7710028.
 7.05000019   7711450.5
 7.23999977   7712874.5
 7.42999983   7714302.5
 7.61999989   7715732.
 7.80999994   7717163.
 8.   7718593.5
 8.18999958   7720023.
 8.38000011   7721448.
 8.56999969   7722868.
 8.76000023   7724283.
 8.94999981   7725700.
 9.14000034   7727115.
 9.32999992   7728532.
 9.52000046   7729954.
 9.71000004   7731373.5
 9.89999962   7732792.
 10.0900002   7734211.
 10.2799997   7735626.
 10.4700003   7737037.5
 10.6599998   7738452.5
 10.8500004   7739867.5
 11.04   7741278.5
 11.2299995   7742693.5
 11.4200001   7744110.
 11.6099997   7745524.
 11.8000002   7746937.5
 11.9899998   7748350.
 12.1800003   7749760.
 12.3699999   7751166.5
 12.5600004   7752572.
 12.75   7753976.5
 12.9399996   7755379.
 13.1300001   7756781.
 13.3199997   7758183.
 13.5100002   7759586.
 13.6999998   7760988.
 13.8900003   7762389.
 14.0799999   7763793.5
 14.2700005   7765198.5
 14.46   7766603.
 14.6499996   7768006.5
 14.8400002   7769407.5
 15.0299997   7770804.5
 15.2200003   7772202.5
 15.4099998   7773596.
 15.6000004   7774992.
 15.79   7776386.5
 15.9799995   7777784.5
 16.1700001   7779184.5
 16.3600006   7780584.
 16.5499992   7781987.5
 16.7399998   7783391.
 16.9300003   7784793.
 17.1200008   7786195.
 17.3099995   7787594.
 17.5   7788995.5
 17.6900005   7790396.5
 17.8799992   7791798.5
 18.0699997   7793201.5
 18.2600002   7794607.
 18.4500008   7796013.
 18.6399994   7797418.
 18.8299999   7798821.5
 19.0200005   7800220.5
 19.2099991   7801618.5
 19.3999996   7803014.5
 19.5900002   7804407.5
 19.7800007   7805799.
 19.9699993   7807189.5
 20.1599998   7808578.
 20.3500004   7809968.5
 20.5400009   7811360.5
 20.7299995   7812752.
 20.9200001   7814146.5
 21.1100006   7815538.5
 21.2999992   7816930.
 21.4899998   7818321.5
 21.6800003   7819708.
 21.8700008   7821090.5
 22.0599995   7822473.5
 22.25   7823856.5
 22.4400005   7825242.5
 22.6299992   7826634.
 22.8199997   7828024.5
 23.0100002   7829418.
 23.2000008   7830810.
 23.3899994   7832201.
 23.5799999   7833584.
 23.7700005   7834968.5
 23.9599991   7836346.
 24.1499996   7837720.
 24.3400002   7839096.
 24.5300007   7840467.
 24.7199993   7841838.5
 24.9099998   7843209.
 25.1000004   7844581.
 25.2900009   7845951.
 25.4799995   7847322.
 25.6700001   7848697.
 25.8600006   7850070.
 26.0499992   7851444.5
 26.2399998   7852815.5
 26.4300003   7854188.
 26.6200008   7855554.
 26.8099995   7856923.5
