 -30.   9219712.
 -29.8099995   9221585.
 -29.6200008   9223455.
 -29.4300003   9225329.
 -29.2399998   9227211.
 -29.0499992   9229092.
 -28.8600006   9230965.
 -28.6700001   9232831.
 -28.4799995   9234697.
 -28.2900009   9236571.
 -28.1000004   9238455.
 -27.9099998   9240340.
 -27.7199993   9242220.
 -27.5300007   9244089.
 -27.3400002   9245956.
 -27.1499996   9247830.
 -26.9599991   9249710.
 -26.7700005   9251593.
 -26.5799999   9253471.
 -26.3899994   9255339.
 -26.2000008   9257205.
 -26.0100002   9259076.
 -25.8199997   9260957.
 -25.6299992   9262842.
 -25.4400005   9264724.
 -25.25   9266599.
 -25.0599995   9268470.
 -24.8700008   9270344.
 -24.6800003   9272227.
 -24.4899998   9274113.
 -24.2999992   9275997.
 -24.1100006   9277875.
 -23.9200001   9279748.
 -23.7299995   9281627.
 -23.5400009   9283512.
 -23.3500004   9285405.
 -23.1599998   9287294.
 -22.9699993   9289176.
 -22.7800007   9291053.
 -22.5900002   9292931.
 -22.3999996   9294817.
 -22.2099991   9296708.
 -22.0200005   9298597.
 -21.8299999   9300479.
 -21.6399994   9302356.
 -21.4500008   9304235.
 -21.2600002   9306121.
 -21.0699997   9308014.
 -20.8799992   9309906.
 -20.6900005   9311790.
 -20.5   9313666.
 -20.3099995   9315541.
 -20.1200008   9317418.
 -19.9300003   9319299.
 -19.7399998   9321183.
 -19.5499992   9323060.
 -19.3600006   9324931.
 -19.1700001   9326801.
 -18.9799995   9328677.
 -18.7900009   9330562.
 -18.6000004   9332452.
 -18.4099998   9334339.
 -18.2199993   9336222.
 -18.0300007   9338102.
 -17.8400002   9339985.
 -17.6499996   9341873.
 -17.4599991   9343761.
 -17.2700005   9345648.
 -17.0799999   9347524.
 -16.8899994   9349392.
 -16.7000008   9351262.
 -16.5100002   9353139.
 -16.3199997   9355021.
 -16.1299992   9356900.
 -15.9399996   9358771.
 -15.75   9360636.
 -15.5600004   9362502.
 -15.3699999   9364373.
 -15.1800003   9366253.
 -14.9899998   9368133.
 -14.8000002   9370008.
 -14.6099997   9371879.
 -14.4200001   9373753.
 -14.2299995   9375639.
 -14.04   9377535.
 -13.8500004   9379430.
 -13.6599998   9381321.
 -13.4700003   9383201.
 -13.2799997   9385084.
 -13.0900002   9386974.
 -12.8999996   9388872.
 -12.71   9390770.
 -12.5200005   9392660.
 -12.3299999   9394542.
 -12.1400003   9396425.
 -11.9499998   9398319.
 -11.7600002   9400223.
 -11.5699997   9402128.
 -11.3800001   9404022.
 -11.1899996   9405905.
 -11.   9407782.
 -10.8100004   9409666.
 -10.6199999   9411557.
 -10.4300003   9413447.
 -10.2399998   9415327.
 -10.0500002   9417197.
 -9.85999966   9419064.
 -9.67000008   9420942.
 -9.47999954   9422833.
 -9.28999996   9424731.
 -9.10000038   9426623.
 -8.90999985   9428510.
 -8.72000027   9430396.
 -8.52999973   9432290.
 -8.34000015   9434198.
 -8.14999962   9436110.
 -7.96000004   9438016.
 -7.76999998   9439912.
 -7.57999992   9441802.
 -7.38999987   9443697.
 -7.19999981   9445600.
 -7.01000023   9447507.
 -6.82000017   9449409.
 -6.63000011   9451302.
 -6.44000006   9453191.
 -6.25   9455084.
 -6.05999994   9456987.
 -5.86999989   9458900.
 -5.67999983   9460808.
 -5.48999977   9462709.
 -5.30000019   9464603.
 -5.11000013   9466501.
 -4.92000008   9468404.
 -4.73000002   9470309.
 -4.53999996   9472210.
 -4.3499999   9474101.
 -4.15999985   9475985.
 -3.97000003   9477872.
 -3.77999997   9479765.
 -3.58999991   9481664.
 -3.4000001   9483556.
 -3.21000004   9485441.
 -3.01999998   9487320.
 -2.82999992   9489202.
 -2.6400001   9491092.
 -2.45000005   9492992.
 -2.25999999   9494897.
 -2.06999993   9496799.
 -1.88   9498696.
 -1.69000006   9500596.
 -1.5   9502501.
 -1.30999994   9504413.
 -1.12   9506325.
 -0.930000007   9508230.
 -0.74000001   9510123.
 -0.550000012   9512014.
 -0.360000014   9513906.
 -0.170000002   9515803.
 1.999999955E-2   9517703.
 0.209999993   9519600.
 0.400000006   9521492.
 0.589999974   9523384.
 0.779999971   9525282.
 0.970000029   9527190.
 1.15999997   9529105.
 1.35000002   9531020.
 1.53999996   9532930.
 1.73000002   9534833.
 1.91999996   9536740.
 2.1099999   9538655.
 2.29999995   9540575.
 2.49000001   9542498.
 2.68000007   9544414.
 2.86999989   9546321.
 3.05999994   9548226.
 3.25   9550132.
 3.44000006   9552045.
 3.63000011   9553955.
 3.81999993   9555861.
 4.01000023   9557758.
 4.19999981   9559653.
 4.38999987   9561546.
 4.57999992   9563440.
 4.76999998   9565334.
 4.96000004   9567224.
 5.1500001   9569104.
 5.34000015   9570980.
 5.53000021   9572858.
 5.71999979   9574743.
 5.90999985   9576636.
 6.0999999   9578532.
 6.28999996   9580424.
 6.48000002   9582313.
 6.67000008   9584204.
 6.86000013   9586101.
 7.05000019   9588012.
 7.23999977   9589925.
 7.42999983   9591839.
 7.61999989   9593747.
 7.80999994   9595654.
 8.   9597565.
 8.18999958   9599486.
 8.38000011   9601410.
 8.56999969   9603331.
 8.76000023   9605248.
 8.94999981   9607164.
 9.14000034   9609086.
 9.32999992   9611013.
 9.52000046   9612940.
 9.71000004   9614865.
 9.89999962   9616782.
 10.0900002   9618692.
 10.2799997   9620605.
 10.4700003   9622522.
 10.6599998   9624444.
 10.8500004   9626364.
 11.04   9628279.
 11.2299995   9630191.
 11.4200001   9632106.
 11.6099997   9634029.
 11.8000002   9635956.
 11.9899998   9637882.
 12.1800003   9639800.
 12.3699999   9641717.
 12.5600004   9643633.
 12.75   9645555.
 12.9399996   9647483.
 13.1300001   9649407.
 13.3199997   9651321.
 13.5100002   9653227.
 13.6999998   9655129.
 13.8900003   9657036.
 14.0799999   9658944.
 14.2700005   9660848.
 14.46   9662744.
 14.6499996   9664632.
 14.8400002   9666520.
 15.0299997   9668413.
 15.2200003   9670308.
 15.4099998   9672204.
 15.6000004   9674095.
 15.79   9675985.
 15.9799995   9677877.
 16.1700001   9679781.
 16.3600006   9681698.
 16.5499992   9683621.
 16.7399998   9685542.
 16.9300003   9687457.
 17.1200008   9689369.
 17.3099995   9691282.
 17.5   9693198.
 17.6900005   9695112.
 17.8799992   9697020.
 18.0699997   9698918.
 18.2600002   9700816.
 18.4500008   9702722.
 18.6399994   9704639.
 18.8299999   9706559.
 19.0200005   9708478.
 19.2099991   9710392.
 19.3999996   9712308.
 19.5900002   9714231.
 19.7800007   9716162.
 19.9699993   9718097.
 20.1599998   9720031.
 20.3500004   9721961.
 20.5400009   9723888.
 20.7299995   9725821.
 20.9200001   9727757.
 21.1100006   9729695.
 21.2999992   9731625.
 21.4899998   9733547.
 21.6800003   9735467.
 21.8700008   9737389.
 22.0599995   9739313.
 22.25   9741234.
 22.4400005   9743150.
 22.6299992   9745060.
 22.8199997   9746970.
 23.0100002   9748881.
 23.2000008   9750800.
 23.3899994   9752724.
 23.5799999   9754650.
 23.7700005   9756573.
 23.9599991   9758495.
 24.1499996   9760420.
 24.3400002   9762346.
 24.5300007   9764279.
 24.7199993   9766213.
 24.9099998   9768148.
 25.1000004   9770080.
 25.2900009   9772009.
 25.4799995   9773942.
 25.6700001   9775879.
 25.8600006   9777818.
 26.0499992   9779759.
 26.2399998   9781700.
 26.4300003   9783639.
 26.6200008   9785577.
 26.8099995   9787518.
