 -30.   5220593.5
 -29.8099995   5221677.
 -29.6200008   5222774.
 -29.4300003   5223877.
 -29.2399998   5224980.5
 -29.0499992   5226079.
 -28.8600006   5227169.5
 -28.6700001   5228250.
 -28.4799995   5229327.
 -28.2900009   5230404.
 -28.1000004   5231484.5
 -27.9099998   5232577.5
 -27.7199993   5233682.
 -27.5300007   5234798.5
 -27.3400002   5235918.5
 -27.1499996   5237037.5
 -26.9599991   5238149.
 -26.7700005   5239248.
 -26.5799999   5240332.
 -26.3899994   5241404.5
 -26.2000008   5242470.5
 -26.0100002   5243538.
 -25.8199997   5244611.5
 -25.6299992   5245697.5
 -25.4400005   5246797.5
 -25.25   5247908.
 -25.0599995   5249025.
 -24.8700008   5250137.5
 -24.6800003   5251240.5
 -24.4899998   5252332.5
 -24.2999992   5253411.
 -24.1100006   5254483.5
 -23.9200001   5255553.
 -23.7299995   5256628.
 -23.5400009   5257713.5
 -23.3500004   5258812.5
 -23.1599998   5259921.5
 -22.9699993   5261039.5
 -22.7800007   5262157.
 -22.5900002   5263267.
 -22.3999996   5264366.
 -22.2099991   5265449.5
 -22.0200005   5266520.5
 -21.8299999   5267584.
 -21.6399994   5268649.5
 -21.4500008   5269720.5
 -21.2600002   5270804.
 -21.0699997   5271899.5
 -20.8799992   5273000.5
 -20.6900005   5274105.
 -20.5   5275204.
 -20.3099995   5276291.
 -20.1200008   5277363.5
 -19.9300003   5278421.5
 -19.7399998   5279469.5
 -19.5499992   5280516.5
 -19.3600006   5281569.5
 -19.1700001   5282633.
 -18.9799995   5283708.5
 -18.7900009   5284793.
 -18.6000004   5285884.
 -18.4099998   5286970.5
 -18.2199993   5288048.5
 -18.0300007   5289110.5
 -17.8400002   5290159.
 -17.6499996   5291198.5
 -17.4599991   5292231.5
 -17.2700005   5293269.5
 -17.0799999   5294317.
 -16.8899994   5295375.5
 -16.7000008   5296446.5
 -16.5100002   5297523.5
 -16.3199997   5298601.5
 -16.1299992   5299672.5
 -15.9399996   5300732.5
 -15.75   5301775.5
 -15.5600004   5302804.5
 -15.3699999   5303823.
 -15.1800003   5304837.5
 -14.9899998   5305856.
 -14.8000002   5306884.
 -14.6099997   5307925.
 -14.4200001   5308976.5
 -14.2299995   5310034.5
 -14.04   5311093.
 -13.8500004   5312142.
 -13.6599998   5313176.
 -13.4700003   5314194.5
 -13.2799997   5315202.
 -13.0900002   5316207.
 -12.8999996   5317220.
 -12.71   5318246.5
 -12.5200005   5319292.
 -12.3299999   5320351.
 -12.1400003   5321421.
 -11.9499998   5322493.
 -11.7600002   5323557.
 -11.5699997   5324607.
 -11.3800001   5325644.
 -11.1899996   5326664.5
 -11.   5327678.5
 -10.8100004   5328690.5
 -10.6199999   5329706.5
 -10.4300003   5330731.5
 -10.2399998   5331764.5
 -10.0500002   5332807.5
 -9.85999966   5333852.5
 -9.67000008   5334892.5
 -9.47999954   5335923.5
 -9.28999996   5336939.5
 -9.10000038   5337939.
 -8.90999985   5338925.5
 -8.72000027   5339907.5
 -8.52999973   5340896.
 -8.34000015   5341897.5
 -8.14999962   5342920.5
 -7.96000004   5343964.
 -7.76999998   5345021.
 -7.57999992   5346084.
 -7.38999987   5347140.5
 -7.19999981   5348185.5
 -7.01000023   5349212.
 -6.82000017   5350225.
 -6.63000011   5351231.
 -6.44000006   5352238.5
 -6.25   5353256.
 -6.05999994   5354288.5
 -5.86999989   5355338.
 -5.67999983   5356398.5
 -5.48999977   5357464.5
 -5.30000019   5358525.
 -5.11000013   5359574.
 -4.92000008   5360606.5
 -4.73000002   5361621.5
 -4.53999996   5362621.
 -4.3499999   5363614.5
 -4.15999985   5364605.5
 -3.97000003   5365601.5
 -3.77999997   5366610.5
 -3.58999991   5367633.5
 -3.4000001   5368668.
 -3.21000004   5369707.
 -3.01999998   5370746.
 -2.82999992   5371777.
 -2.6400001   5372795.
 -2.45000005   5373796.5
 -2.25999999   5374787.5
 -2.06999993   5375773.5
 -1.88   5376764.5
 -1.69000006   5377768.5
 -1.5   5378791.5
 -1.30999994   5379828.5
 -1.12   5380873.
 -0.930000007   5381917.
 -0.74000001   5382947.
 -0.550000012   5383962.
 -0.360000014   5384958.
 -0.170000002   5385941.5
 1.999999955E-2   5386917.
 0.209999993   5387895.
 0.400000006   5388880.5
 0.589999974   5389880.5
 0.779999971   5390891.
 0.970000029   5391912.
 1.15999997   5392933.5
 1.35000002   5393950.
 1.53999996   5394955.
 1.73000002   5395946.5
 1.91999996   5396923.5
 2.1099999   5397890.
 2.29999995   5398852.5
 2.49000001   5399818.
 2.68000007   5400793.
 2.86999989   5401783.
 3.05999994   5402789.
 3.25   5403804.
 3.44000006   5404818.5
 3.63000011   5405824.
 3.81999993   5406814.
 4.01000023   5407785.5
 4.19999981   5408742.5
 4.38999987   5409694.5
 4.57999992   5410650.5
 4.76999998   5411617.5
 4.96000004   5412604.
 5.1500001   5413609.
 5.34000015   5414628.5
 5.53000021   5415655.
 5.71999979   5416677.5
 5.90999985   5417689.5
 6.0999999   5418685.
 6.28999996   5419669.
 6.48000002   5420640.5
 6.67000008   5421610.
 6.86000013   5422581.
 7.05000019   5423568.
 7.23999977   5424569.5
 7.42999983   5425588.
 7.61999989   5426616.
 7.80999994   5427639.5
 8.   5428649.5
 8.18999958   5429638.5
 8.38000011   5430607.5
 8.56999969   5431561.
 8.76000023   5432511.
 8.94999981   5433468.5
 9.14000034   5434441.5
 9.32999992   5435436.5
 9.52000046   5436449.5
 9.71000004   5437475.
 9.89999962   5438505.5
 10.0900002   5439529.
 10.2799997   5440538.5
 10.4700003   5441534.
 10.6599998   5442518.5
 10.8500004   5443496.
 11.04   5444476.
 11.2299995   5445464.5
 11.4200001   5446463.
 11.6099997   5447473.
 11.8000002   5448494.
 11.9899998   5449519.5
 12.1800003   5450542.5
 12.3699999   5451553.
 12.5600004   5452544.
 12.75   5453515.5
 12.9399996   5454470.
 13.1300001   5455417.
 13.3199997   5456368.
 13.5100002   5457329.5
 13.6999998   5458307.
 13.8900003   5459302.
 14.0799999   5460308.
 14.2700005   5461315.
 14.46   5462312.
 14.6499996   5463287.
 14.8400002   5464240.5
 15.0299997   5465176.
 15.2200003   5466107.
 15.4099998   5467044.5
 15.6000004   5468000.
 15.79   5468978.5
 15.9799995   5469976.
 16.1700001   5470989.
 16.3600006   5472004.
 16.5499992   5473015.
 16.7399998   5474012.
 16.9300003   5474997.5
 17.1200008   5475969.
 17.3099995   5476938.5
 17.5   5477914.5
 17.6900005   5478905.5
 17.8799992   5479916.5
 18.0699997   5480945.5
 18.2600002   5481987.
 18.4500008   5483035.5
 18.6399994   5484081.5
 18.8299999   5485115.
 19.0200005   5486129.5
 19.2099991   5487123.5
 19.3999996   5488099.5
 19.5900002   5489067.
 19.7800007   5490037.5
 19.9699993   5491020.
 20.1599998   5492015.5
 20.3500004   5493022.5
 20.5400009   5494031.5
 20.7299995   5495029.
 20.9200001   5496010.
 21.1100006   5496970.
 21.2999992   5497911.
 21.4899998   5498841.
 21.6800003   5499772.5
 21.8700008   5500712.5
 22.0599995   5501670.5
 22.25   5502646.
 22.4400005   5503635.5
 22.6299992   5504631.5
 22.8199997   5505625.
 23.0100002   5506610.5
 23.2000008   5507586.5
 23.3899994   5508553.
 23.5799999   5509511.
 23.7700005   5510465.5
 23.9599991   5511418.
 24.1499996   5512370.5
 24.3400002   5513331.5
 24.5300007   5514302.
 24.7199993   5515284.
 24.9099998   5516273.
 25.1000004   5517267.5
 25.2900009   5518260.
 25.4799995   5519241.5
 25.6700001   5520204.5
 25.8600006   5521148.5
 26.0499992   5522075.5
 26.2399998   5522991.
 26.4300003   5523908.5
 26.6200008   5524837.5
 26.8099995   5525784.
