 -30.   -3092081.
 -29.8099995   -3092717.
 -29.6200008   -3093355.5
 -29.4300003   -3093995.
 -29.2399998   -3094632.
 -29.0499992   -3095267.5
 -28.8600006   -3095899.5
 -28.6700001   -3096530.25
 -28.4799995   -3097157.75
 -28.2900009   -3097787.75
 -28.1000004   -3098417.25
 -27.9099998   -3099046.75
 -27.7199993   -3099678.5
 -27.5300007   -3100307.25
 -27.3400002   -3100934.5
 -27.1499996   -3101559.25
 -26.9599991   -3102183.25
 -26.7700005   -3102807.25
 -26.5799999   -3103432.5
 -26.3899994   -3104058.5
 -26.2000008   -3104688.25
 -26.0100002   -3105320.75
 -25.8199997   -3105954.25
 -25.6299992   -3106585.
 -25.4400005   -3107215.5
 -25.25   -3107845.25
 -25.0599995   -3108473.75
 -24.8700008   -3109101.5
 -24.6800003   -3109729.75
 -24.4899998   -3110359.75
 -24.2999992   -3110992.
 -24.1100006   -3111623.75
 -23.9200001   -3112254.5
 -23.7299995   -3112884.5
 -23.5400009   -3113511.5
 -23.3500004   -3114137.
 -23.1599998   -3114763.25
 -22.9699993   -3115390.75
 -22.7800007   -3116019.5
 -22.5900002   -3116650.5
 -22.3999996   -3117283.75
 -22.2099991   -3117917.
 -22.0200005   -3118548.25
 -21.8299999   -3119177.5
 -21.6399994   -3119805.
 -21.4500008   -3120429.75
 -21.2600002   -3121055.
 -21.0699997   -3121678.75
 -20.8799992   -3122305.
 -20.6900005   -3122933.75
 -20.5   -3123563.
 -20.3099995   -3124192.75
 -20.1200008   -3124822.75
 -19.9300003   -3125450.
 -19.7399998   -3126077.5
 -19.5499992   -3126701.5
 -19.3600006   -3127324.5
 -19.1700001   -3127947.
 -18.9799995   -3128571.
 -18.7900009   -3129195.25
 -18.6000004   -3129820.5
 -18.4099998   -3130449.75
 -18.2199993   -3131078.5
 -18.0300007   -3131708.
 -17.8400002   -3132336.75
 -17.6499996   -3132965.
 -17.4599991   -3133592.
 -17.2700005   -3134217.
 -17.0799999   -3134840.25
 -16.8899994   -3135463.5
 -16.7000008   -3136087.75
 -16.5100002   -3136710.75
 -16.3199997   -3137335.25
 -16.1299992   -3137959.25
 -15.9399996   -3138583.75
 -15.75   -3139204.75
 -15.5600004   -3139824.25
 -15.3699999   -3140441.
 -15.1800003   -3141054.25
 -14.9899998   -3141668.5
 -14.8000002   -3142285.
 -14.6099997   -3142902.25
 -14.4200001   -3143522.75
 -14.2299995   -3144144.
 -14.04   -3144767.75
 -13.8500004   -3145388.25
 -13.6599998   -3146006.5
 -13.4700003   -3146621.25
 -13.2799997   -3147233.75
 -13.0900002   -3147844.75
 -12.8999996   -3148458.25
 -12.71   -3149074.
 -12.5200005   -3149693.75
 -12.3299999   -3150317.5
 -12.1400003   -3150941.75
 -11.9499998   -3151566.75
 -11.7600002   -3152189.
 -11.5699997   -3152806.25
 -11.3800001   -3153421.25
 -11.1899996   -3154034.75
 -11.   -3154644.25
 -10.8100004   -3155254.
 -10.6199999   -3155860.75
 -10.4300003   -3156471.
 -10.2399998   -3157080.25
 -10.0500002   -3157691.
 -9.85999966   -3158301.25
 -9.67000008   -3158914.5
 -9.47999954   -3159526.75
 -9.28999996   -3160140.25
 -9.10000038   -3160751.25
 -8.90999985   -3161361.25
 -8.72000027   -3161969.
 -8.52999973   -3162575.75
 -8.34000015   -3163181.
 -8.14999962   -3163789.5
 -7.96000004   -3164402.5
 -7.76999998   -3165020.25
 -7.57999992   -3165639.75
 -7.38999987   -3166259.75
 -7.19999981   -3166877.5
 -7.01000023   -3167493.5
 -6.82000017   -3168109.5
 -6.63000011   -3168723.5
 -6.44000006   -3169338.25
 -6.25   -3169955.
 -6.05999994   -3170573.25
 -5.86999989   -3171194.5
 -5.67999983   -3171815.75
 -5.48999977   -3172435.75
 -5.30000019   -3173050.25
 -5.11000013   -3173661.
 -4.92000008   -3174267.25
 -4.73000002   -3174869.75
 -4.53999996   -3175469.5
 -4.3499999   -3176069.25
 -4.15999985   -3176667.5
 -3.97000003   -3177264.
 -3.77999997   -3177860.5
 -3.58999991   -3178455.5
 -3.4000001   -3179051.75
 -3.21000004   -3179652.25
 -3.01999998   -3180255.5
 -2.82999992   -3180863.25
 -2.6400001   -3181473.75
 -2.45000005   -3182087.
 -2.25999999   -3182699.25
 -2.06999993   -3183310.5
 -1.88   -3183917.5
 -1.69000006   -3184524.5
 -1.5   -3185128.75
 -1.30999994   -3185735.
 -1.12   -3186339.5
 -0.930000007   -3186948.75
 -0.74000001   -3187556.75
 -0.550000012   -3188162.25
 -0.360000014   -3188766.5
 -0.170000002   -3189366.5
 1.999999955E-2   -3189962.75
 0.209999993   -3190557.75
 0.400000006   -3191151.75
 0.589999974   -3191743.
 0.779999971   -3192336.5
 0.970000029   -3192932.75
 1.15999997   -3193529.25
 1.35000002   -3194125.
 1.53999996   -3194719.25
 1.73000002   -3195310.5
 1.91999996   -3195899.25
 2.1099999   -3196485.25
 2.29999995   -3197072.5
 2.49000001   -3197662.75
 2.68000007   -3198256.75
 2.86999989   -3198855.5
 3.05999994   -3199459.75
 3.25   -3200066.75
 3.44000006   -3200674.75
 3.63000011   -3201279.75
 3.81999993   -3201882.
 4.01000023   -3202477.5
 4.19999981   -3203072.25
 4.38999987   -3203664.25
 4.57999992   -3204255.5
 4.76999998   -3204848.25
 4.96000004   -3205442.5
 5.1500001   -3206037.5
 5.34000015   -3206635.25
 5.53000021   -3207230.25
 5.71999979   -3207828.5
 5.90999985   -3208425.
 6.0999999   -3209019.75
 6.28999996   -3209612.75
 6.48000002   -3210204.5
 6.67000008   -3210793.5
 6.86000013   -3211380.5
 7.05000019   -3211966.5
 7.23999977   -3212554.
 7.42999983   -3213143.
 7.61999989   -3213735.25
 7.80999994   -3214333.25
 8.   -3214932.25
 8.18999958   -3215531.5
 8.38000011   -3216129.25
 8.56999969   -3216725.25
 8.76000023   -3217318.5
 8.94999981   -3217909.5
 9.14000034   -3218500.25
 9.32999992   -3219092.75
 9.52000046   -3219684.
 9.71000004   -3220277.
 9.89999962   -3220870.5
 10.0900002   -3221462.25
 10.2799997   -3222051.25
 10.4700003   -3222638.25
 10.6599998   -3223222.25
 10.8500004   -3223804.
 11.04   -3224384.25
 11.2299995   -3224966.5
 11.4200001   -3225550.25
 11.6099997   -3226138.
 11.8000002   -3226725.75
 11.9899998   -3227318.25
 12.1800003   -3227910.75
 12.3699999   -3228503.
 12.5600004   -3229090.75
 12.75   -3229673.5
 12.9399996   -3230250.25
 13.1300001   -3230824.
 13.3199997   -3231395.25
 13.5100002   -3231966.25
 13.6999998   -3232540.75
 13.8900003   -3233119.5
 14.0799999   -3233703.25
 14.2700005   -3234293.
 14.46   -3234884.25
 14.6499996   -3235475.
 14.8400002   -3236061.
 15.0299997   -3236640.5
 15.2200003   -3237213.5
 15.4099998   -3237780.
 15.6000004   -3238346.
 15.79   -3238909.5
 15.9799995   -3239478.75
 16.1700001   -3240057.
 16.3600006   -3240641.5
 16.5499992   -3241228.25
 16.7399998   -3241814.
 16.9300003   -3242394.
 17.1200008   -3242966.5
 17.3099995   -3243531.75
 17.5   -3244096.25
 17.6900005   -3244661.5
 17.8799992   -3245234.5
 18.0699997   -3245817.75
 18.2600002   -3246409.75
 18.4500008   -3247009.75
 18.6399994   -3247608.5
 18.8299999   -3248202.75
 19.0200005   -3248788.75
 19.2099991   -3249364.
 19.3999996   -3249933.25
 19.5900002   -3250502.5
 19.7800007   -3251074.75
 19.9699993   -3251654.75
 20.1599998   -3252239.5
 20.3500004   -3252830.75
 20.5400009   -3253422.5
 20.7299995   -3254009.75
 20.9200001   -3254592.5
 21.1100006   -3255168.
 21.2999992   -3255740.
 21.4899998   -3256311.75
 21.6800003   -3256887.25
 21.8700008   -3257464.75
 22.0599995   -3258046.5
 22.25   -3258628.25
 22.4400005   -3259206.25
 22.6299992   -3259780.75
 22.8199997   -3260353.
 23.0100002   -3260923.
 23.2000008   -3261492.75
 23.3899994   -3262062.25
 23.5799999   -3262637.25
 23.7700005   -3263217.
 23.9599991   -3263803.
 24.1499996   -3264392.
 24.3400002   -3264986.
 24.5300007   -3265579.5
 24.7199993   -3266171.
 24.9099998   -3266758.5
 25.1000004   -3267340.25
 25.2900009   -3267916.
 25.4799995   -3268488.
 25.6700001   -3269056.25
 25.8600006   -3269626.
 26.0499992   -3270195.25
 26.2399998   -3270766.25
 26.4300003   -3271335.5
 26.6200008   -3271904.75
 26.8099995   -3272469.
