 -30.   -6073155.
 -29.8099995   -6074405.
 -29.6200008   -6075660.
 -29.4300003   -6076920.
 -29.2399998   -6078178.5
 -29.0499992   -6079432.
 -28.8600006   -6080679.5
 -28.6700001   -6081921.5
 -28.4799995   -6083159.5
 -28.2900009   -6084396.
 -28.1000004   -6085636.
 -27.9099998   -6086882.5
 -27.7199993   -6088136.5
 -27.5300007   -6089398.
 -27.3400002   -6090658.5
 -27.1499996   -6091917.
 -26.9599991   -6093169.
 -26.7700005   -6094411.5
 -26.5799999   -6095645.5
 -26.3899994   -6096873.
 -26.2000008   -6098098.
 -26.0100002   -6099325.
 -25.8199997   -6100557.5
 -25.6299992   -6101798.
 -25.4400005   -6103044.5
 -25.25   -6104293.5
 -25.0599995   -6105541.
 -24.8700008   -6106783.
 -24.6800003   -6108015.5
 -24.4899998   -6109239.5
 -24.2999992   -6110455.
 -24.1100006   -6111668.5
 -23.9200001   -6112883.5
 -23.7299995   -6114106.5
 -23.5400009   -6115338.
 -23.3500004   -6116577.5
 -23.1599998   -6117822.5
 -22.9699993   -6119067.
 -22.7800007   -6120308.
 -22.5900002   -6121540.
 -22.3999996   -6122762.5
 -22.2099991   -6123976.5
 -22.0200005   -6125186.5
 -21.8299999   -6126400.5
 -21.6399994   -6127619.5
 -21.4500008   -6128848.5
 -21.2600002   -6130089.
 -21.0699997   -6131333.
 -20.8799992   -6132576.
 -20.6900005   -6133815.
 -20.5   -6135043.
 -20.3099995   -6136263.
 -20.1200008   -6137476.5
 -19.9300003   -6138686.
 -19.7399998   -6139899.
 -19.5499992   -6141121.5
 -19.3600006   -6142354.
 -19.1700001   -6143598.
 -18.9799995   -6144846.5
 -18.7900009   -6146093.5
 -18.6000004   -6147336.5
 -18.4099998   -6148568.5
 -18.2199993   -6149790.5
 -18.0300007   -6151003.5
 -17.8400002   -6152211.5
 -17.6499996   -6153421.5
 -17.4599991   -6154638.5
 -17.2700005   -6155865.
 -17.0799999   -6157099.5
 -16.8899994   -6158340.5
 -16.7000008   -6159583.
 -16.5100002   -6160821.
 -16.3199997   -6162050.
 -16.1299992   -6163268.5
 -15.9399996   -6164479.5
 -15.75   -6165684.
 -15.5600004   -6166890.
 -15.3699999   -6168100.5
 -15.1800003   -6169319.5
 -14.9899998   -6170547.5
 -14.8000002   -6171783.
 -14.6099997   -6173018.5
 -14.4200001   -6174251.
 -14.2299995   -6175474.
 -14.04   -6176687.
 -13.8500004   -6177892.
 -13.6599998   -6179088.5
 -13.4700003   -6180285.
 -13.2799997   -6181484.
 -13.0900002   -6182689.5
 -12.8999996   -6183899.5
 -12.71   -6185116.
 -12.5200005   -6186331.5
 -12.3299999   -6187544.5
 -12.1400003   -6188749.5
 -11.9499998   -6189949.
 -11.7600002   -6191143.
 -11.5699997   -6192331.5
 -11.3800001   -6193519.5
 -11.1899996   -6194708.
 -11.   -6195903.5
 -10.8100004   -6197105.5
 -10.6199999   -6198312.
 -10.4300003   -6199522.5
 -10.2399998   -6200731.5
 -10.0500002   -6201937.5
 -9.85999966   -6203135.
 -9.67000008   -6204322.
 -9.47999954   -6205502.5
 -9.28999996   -6206681.5
 -9.10000038   -6207860.
 -8.90999985   -6209043.
 -8.72000027   -6210232.5
 -8.52999973   -6211424.5
 -8.34000015   -6212617.
 -8.14999962   -6213804.
 -7.96000004   -6214985.
 -7.76999998   -6216155.
 -7.57999992   -6217319.
 -7.38999987   -6218477.
 -7.19999981   -6219637.
 -7.01000023   -6220799.5
 -6.82000017   -6221969.5
 -6.63000011   -6223146.5
 -6.44000006   -6224329.
 -6.25   -6225516.
 -6.05999994   -6226703.
 -5.86999989   -6227888.
 -5.67999983   -6229069.
 -5.48999977   -6230244.5
 -5.30000019   -6231417.
 -5.11000013   -6232585.
 -4.92000008   -6233756.
 -4.73000002   -6234932.5
 -4.53999996   -6236115.
 -4.3499999   -6237303.
 -4.15999985   -6238495.5
 -3.97000003   -6239689.
 -3.77999997   -6240879.
 -3.58999991   -6242059.5
 -3.4000001   -6243232.
 -3.21000004   -6244398.
 -3.01999998   -6245558.5
 -2.82999992   -6246722.5
 -2.6400001   -6247890.
 -2.45000005   -6249066.5
 -2.25999999   -6250247.5
 -2.06999993   -6251431.5
 -1.88   -6252613.5
 -1.69000006   -6253791.
 -1.5   -6254965.
 -1.30999994   -6256133.5
 -1.12   -6257297.
 -0.930000007   -6258462.5
 -0.74000001   -6259629.5
 -0.550000012   -6260802.
 -0.360000014   -6261975.5
 -0.170000002   -6263154.5
 1.999999955E-2   -6264333.
 0.209999993   -6265510.
 0.400000006   -6266685.
 0.589999974   -6267856.
 0.779999971   -6269024.5
 0.970000029   -6270191.
 1.15999997   -6271357.
 1.35000002   -6272523.5
 1.53999996   -6273692.
 1.73000002   -6274864.
 1.91999996   -6276040.5
 2.1099999   -6277215.
 2.29999995   -6278390.5
 2.49000001   -6279562.
 2.68000007   -6280732.5
 2.86999989   -6281898.
 3.05999994   -6283057.
 3.25   -6284214.5
 3.44000006   -6285370.
 3.63000011   -6286527.5
 3.81999993   -6287688.
 4.01000023   -6288849.
 4.19999981   -6290011.
 4.38999987   -6291175.5
 4.57999992   -6292341.
 4.76999998   -6293502.
 4.96000004   -6294666.5
 5.1500001   -6295831.5
 5.34000015   -6296998.
 5.53000021   -6298163.5
 5.71999979   -6299332.
 5.90999985   -6300496.5
 6.0999999   -6301661.5
 6.28999996   -6302820.
 6.48000002   -6303979.
 6.67000008   -6305138.
 6.86000013   -6306299.5
 7.05000019   -6307464.
 7.23999977   -6308628.5
 7.42999983   -6309793.5
 7.61999989   -6310956.
 7.80999994   -6312115.5
 8.   -6313273.
 8.18999958   -6314431.5
 8.38000011   -6315589.5
 8.56999969   -6316748.
 8.76000023   -6317910.5
 8.94999981   -6319070.
 9.14000034   -6320230.
 9.32999992   -6321384.
 9.52000046   -6322540.5
 9.71000004   -6323693.5
 9.89999962   -6324847.
 10.0900002   -6326005.
 10.2799997   -6327165.
 10.4700003   -6328330.5
 10.6599998   -6329500.5
 10.8500004   -6330670.5
 11.04   -6331842.
 11.2299995   -6333012.5
 11.4200001   -6334184.
 11.6099997   -6335351.5
 11.8000002   -6336517.
 11.9899998   -6337679.
 12.1800003   -6338836.
 12.3699999   -6339990.5
 12.5600004   -6341148.5
 12.75   -6342307.
 12.9399996   -6343471.5
 13.1300001   -6344635.
 13.3199997   -6345799.5
 13.5100002   -6346959.5
 13.6999998   -6348115.
 13.8900003   -6349266.
 14.0799999   -6350412.5
 14.2700005   -6351560.5
 14.46   -6352711.
 14.6499996   -6353868.5
 14.8400002   -6355029.
 15.0299997   -6356193.
 15.2200003   -6357356.5
 15.4099998   -6358515.
 15.6000004   -6359669.5
 15.79   -6360819.
 15.9799995   -6361960.5
 16.1700001   -6363102.5
 16.3600006   -6364243.5
 16.5499992   -6365385.
 16.7399998   -6366529.
 16.9300003   -6367676.5
 17.1200008   -6368828.
 17.3099995   -6369984.
 17.5   -6371141.5
 17.6900005   -6372299.5
 17.8799992   -6373457.
 18.0699997   -6374613.
 18.2600002   -6375766.
 18.4500008   -6376915.5
 18.6399994   -6378064.
 18.8299999   -6379211.
 19.0200005   -6380356.
 19.2099991   -6381503.
 19.3999996   -6382645.
 19.5900002   -6383785.
 19.7800007   -6384923.
 19.9699993   -6386055.
 20.1599998   -6387189.
 20.3500004   -6388324.5
 20.5400009   -6389462.5
 20.7299995   -6390603.
 20.9200001   -6391747.5
 21.1100006   -6392893.5
 21.2999992   -6394037.5
 21.4899998   -6395178.
 21.6800003   -6396316.5
 21.8700008   -6397452.
 22.0599995   -6398585.
 22.25   -6399715.5
 22.4400005   -6400842.5
 22.6299992   -6401972.5
 22.8199997   -6403102.5
 23.0100002   -6404236.5
 23.2000008   -6405369.5
 23.3899994   -6406503.
 23.5799999   -6407637.5
 23.7700005   -6408767.
 23.9599991   -6409894.
 24.1499996   -6411018.
 24.3400002   -6412142.
 24.5300007   -6413271.5
 24.7199993   -6414407.5
 24.9099998   -6415546.5
 25.1000004   -6416689.5
 25.2900009   -6417833.5
 25.4799995   -6418974.
 25.6700001   -6420112.
 25.8600006   -6421243.5
 26.0499992   -6422371.5
 26.2399998   -6423499.
 26.4300003   -6424631.5
 26.6200008   -6425763.
 26.8099995   -6426900.
