 -30.   8754992.
 -29.8099995   8756773.
 -29.6200008   8758546.
 -29.4300003   8760316.
 -29.2399998   8762088.
 -29.0499992   8763864.
 -28.8600006   8765645.
 -28.6700001   8767430.
 -28.4799995   8769216.
 -28.2900009   8771002.
 -28.1000004   8772784.
 -27.9099998   8774559.
 -27.7199993   8776328.
 -27.5300007   8778091.
 -27.3400002   8779852.
 -27.1499996   8781618.
 -26.9599991   8783388.
 -26.7700005   8785169.
 -26.5799999   8786954.
 -26.3899994   8788744.
 -26.2000008   8790532.
 -26.0100002   8792316.
 -25.8199997   8794091.
 -25.6299992   8795858.
 -25.4400005   8797621.
 -25.25   8799382.
 -25.0599995   8801146.
 -24.8700008   8802913.
 -24.6800003   8804684.
 -24.4899998   8806457.
 -24.2999992   8808233.
 -24.1100006   8810008.
 -23.9200001   8811780.
 -23.7299995   8813551.
 -23.5400009   8815319.
 -23.3500004   8817086.
 -23.1599998   8818850.
 -22.9699993   8820616.
 -22.7800007   8822386.
 -22.5900002   8824157.
 -22.3999996   8825931.
 -22.2099991   8827708.
 -22.0200005   8829488.
 -21.8299999   8831270.
 -21.6399994   8833050.
 -21.4500008   8834828.
 -21.2600002   8836601.
 -21.0699997   8838371.
 -20.8799992   8840138.
 -20.6900005   8841905.
 -20.5   8843673.
 -20.3099995   8845445.
 -20.1200008   8847222.
 -19.9300003   8849000.
 -19.7399998   8850783.
 -19.5499992   8852566.
 -19.3600006   8854349.
 -19.1700001   8856130.
 -18.9799995   8857908.
 -18.7900009   8859684.
 -18.6000004   8861458.
 -18.4099998   8863232.
 -18.2199993   8865006.
 -18.0300007   8866784.
 -17.8400002   8868568.
 -17.6499996   8870353.
 -17.4599991   8872140.
 -17.2700005   8873924.
 -17.0799999   8875706.
 -16.8899994   8877481.
 -16.7000008   8879251.
 -16.5100002   8881016.
 -16.3199997   8882780.
 -16.1299992   8884543.
 -15.9399996   8886308.
 -15.75   8888074.
 -15.5600004   8889841.
 -15.3699999   8891608.
 -15.1800003   8893370.
 -14.9899998   8895128.
 -14.8000002   8896877.
 -14.6099997   8898620.
 -14.4200001   8900355.
 -14.2299995   8902091.
 -14.04   8903829.
 -13.8500004   8905575.
 -13.6599998   8907327.
 -13.4700003   8909086.
 -13.2799997   8910847.
 -13.0900002   8912606.
 -12.8999996   8914361.
 -12.71   8916111.
 -12.5200005   8917853.
 -12.3299999   8919590.
 -12.1400003   8921329.
 -11.9499998   8923069.
 -11.7600002   8924819.
 -11.5699997   8926574.
 -11.3800001   8928338.
 -11.1899996   8930107.
 -11.   8931874.
 -10.8100004   8933634.
 -10.6199999   8935386.
 -10.4300003   8937125.
 -10.2399998   8938856.
 -10.0500002   8940580.
 -9.85999966   8942303.
 -9.67000008   8944032.
 -9.47999954   8945769.
 -9.28999996   8947514.
 -9.10000038   8949266.
 -8.90999985   8951020.
 -8.72000027   8952773.
 -8.52999973   8954518.
 -8.34000015   8956255.
 -8.14999962   8957983.
 -7.96000004   8959708.
 -7.76999998   8961430.
 -7.57999992   8963157.
 -7.38999987   8964895.
 -7.19999981   8966643.
 -7.01000023   8968397.
 -6.82000017   8970152.
 -6.63000011   8971903.
 -6.44000006   8973646.
 -6.25   8975371.
 -6.05999994   8977085.
 -5.86999989   8978787.
 -5.67999983   8980483.
 -5.48999977   8982182.
 -5.30000019   8983887.
 -5.11000013   8985604.
 -4.92000008   8987329.
 -4.73000002   8989057.
 -4.53999996   8990783.
 -4.3499999   8992497.
 -4.15999985   8994197.
 -3.97000003   8995887.
 -3.77999997   8997565.
 -3.58999991   8999246.
 -3.4000001   9000936.
 -3.21000004   9002640.
 -3.01999998   9004362.
 -2.82999992   9006099.
 -2.6400001   9007841.
 -2.45000005   9009581.
 -2.25999999   9011308.
 -2.06999993   9013017.
 -1.88   9014706.
 -1.69000006   9016378.
 -1.5   9018045.
 -1.30999994   9019718.
 -1.12   9021404.
 -0.930000007   9023107.
 -0.74000001   9024824.
 -0.550000012   9026550.
 -0.360000014   9028273.
 -0.170000002   9029986.
 1.999999955E-2   9031682.
 0.209999993   9033362.
 0.400000006   9035029.
 0.589999974   9036697.
 0.779999971   9038370.
 0.970000029   9040058.
 1.15999997   9041765.
 1.35000002   9043490.
 1.53999996   9045223.
 1.73000002   9046953.
 1.91999996   9048672.
 2.1099999   9050371.
 2.29999995   9052050.
 2.49000001   9053714.
 2.68000007   9055374.
 2.86999989   9057041.
 3.05999994   9058723.
 3.25   9060426.
 3.44000006   9062145.
 3.63000011   9063876.
 3.81999993   9065609.
 4.01000023   9067331.
 4.19999981   9069041.
 4.38999987   9070731.
 4.57999992   9072414.
 4.76999998   9074093.
 4.96000004   9075777.
 5.1500001   9077472.
 5.34000015   9079178.
 5.53000021   9080889.
 5.71999979   9082607.
 5.90999985   9084320.
 6.0999999   9086024.
 6.28999996   9087721.
 6.48000002   9089408.
 6.67000008   9091087.
 6.86000013   9092759.
 7.05000019   9094434.
 7.23999977   9096113.
 7.42999983   9097798.
 7.61999989   9099492.
 7.80999994   9101192.
 8.   9102891.
 8.18999958   9104589.
 8.38000011   9106277.
 8.56999969   9107958.
 8.76000023   9109632.
 8.94999981   9111303.
 9.14000034   9112974.
 9.32999992   9114653.
 9.52000046   9116342.
 9.71000004   9118041.
 9.89999962   9119748.
 10.0900002   9121456.
 10.2799997   9123163.
 10.4700003   9124859.
 10.6599998   9126547.
 10.8500004   9128228.
 11.04   9129909.
 11.2299995   9131593.
 11.4200001   9133281.
 11.6099997   9134975.
 11.8000002   9136673.
 11.9899998   9138371.
 12.1800003   9140064.
 12.3699999   9141751.
 12.5600004   9143428.
 12.75   9145097.
 12.9399996   9146755.
 13.1300001   9148416.
 13.3199997   9150076.
 13.5100002   9151741.
 13.6999998   9153415.
 13.8900003   9155095.
 14.0799999   9156776.
 14.2700005   9158463.
 14.46   9160146.
 14.6499996   9161821.
 14.8400002   9163488.
 15.0299997   9165144.
 15.2200003   9166793.
 15.4099998   9168439.
 15.6000004   9170088.
 15.79   9171743.
 15.9799995   9173409.
 16.1700001   9175083.
 16.3600006   9176760.
 16.5499992   9178437.
 16.7399998   9180107.
 16.9300003   9181768.
 17.1200008   9183423.
 17.3099995   9185074.
 17.5   9186723.
 17.6900005   9188375.
 17.8799992   9190032.
 18.0699997   9191693.
 18.2600002   9193359.
 18.4500008   9195029.
 18.6399994   9196701.
 18.8299999   9198372.
 19.0200005   9200042.
 19.2099991   9201704.
 19.3999996   9203359.
 19.5900002   9205007.
 19.7800007   9206651.
 19.9699993   9208294.
 20.1599998   9209942.
 20.3500004   9211597.
 20.5400009   9213263.
 20.7299995   9214933.
 20.9200001   9216606.
 21.1100006   9218273.
 21.2999992   9219932.
 21.4899998   9221583.
 21.6800003   9223225.
 21.8700008   9224864.
 22.0599995   9226504.
 22.25   9228149.
 22.4400005   9229802.
 22.6299992   9231464.
 22.8199997   9233131.
 23.0100002   9234798.
 23.2000008   9236463.
 23.3899994   9238123.
 23.5799999   9239777.
 23.7700005   9241425.
 23.9599991   9243067.
 24.1499996   9244709.
 24.3400002   9246353.
 24.5300007   9248001.
 24.7199993   9249649.
 24.9099998   9251300.
 25.1000004   9252952.
 25.2900009   9254601.
 25.4799995   9256246.
 25.6700001   9257885.
 25.8600006   9259519.
 26.0499992   9261151.
 26.2399998   9262782.
 26.4300003   9264413.
 26.6200008   9266047.
 26.8099995   9267685.
