 -30.   -2878469.5
 -29.8099995   -2879059.
 -29.6200008   -2879649.75
 -29.4300003   -2880241.
 -29.2399998   -2880832.
 -29.0499992   -2881422.75
 -28.8600006   -2882014.
 -28.6700001   -2882604.75
 -28.4799995   -2883196.25
 -28.2900009   -2883790.25
 -28.1000004   -2884382.
 -27.9099998   -2884973.75
 -27.7199993   -2885564.75
 -27.5300007   -2886154.5
 -27.3400002   -2886744.
 -27.1499996   -2887334.25
 -26.9599991   -2887924.25
 -26.7700005   -2888515.5
 -26.5799999   -2889108.5
 -26.3899994   -2889700.5
 -26.2000008   -2890292.25
 -26.0100002   -2890882.5
 -25.8199997   -2891472.75
 -25.6299992   -2892062.5
 -25.4400005   -2892652.25
 -25.25   -2893243.5
 -25.0599995   -2893835.5
 -24.8700008   -2894427.5
 -24.6800003   -2895018.75
 -24.4899998   -2895610.75
 -24.2999992   -2896200.25
 -24.1100006   -2896787.75
 -23.9200001   -2897375.
 -23.7299995   -2897961.5
 -23.5400009   -2898546.75
 -23.3500004   -2899131.
 -23.1599998   -2899716.75
 -22.9699993   -2900302.25
 -22.7800007   -2900889.5
 -22.5900002   -2901477.5
 -22.3999996   -2902066.
 -22.2099991   -2902655.25
 -22.0200005   -2903248.
 -21.8299999   -2903840.75
 -21.6399994   -2904436.25
 -21.4500008   -2905033.75
 -21.2600002   -2905633.5
 -21.0699997   -2906236.
 -20.8799992   -2906841.5
 -20.6900005   -2907447.5
 -20.5   -2908055.25
 -20.3099995   -2908661.75
 -20.1200008   -2909270.25
 -19.9300003   -2909877.5
 -19.7399998   -2910486.
 -19.5499992   -2911095.5
 -19.3600006   -2911708.25
 -19.1700001   -2912323.
 -18.9799995   -2912941.5
 -18.7900009   -2913561.25
 -18.6000004   -2914180.5
 -18.4099998   -2914799.5
 -18.2199993   -2915418.
 -18.0300007   -2916034.
 -17.8400002   -2916649.
 -17.6499996   -2917262.
 -17.4599991   -2917875.
 -17.2700005   -2918485.5
 -17.0799999   -2919096.
 -16.8899994   -2919703.5
 -16.7000008   -2920307.75
 -16.5100002   -2920908.25
 -16.3199997   -2921504.
 -16.1299992   -2922095.5
 -15.9399996   -2922684.5
 -15.75   -2923273.25
 -15.5600004   -2923861.25
 -15.3699999   -2924449.75
 -15.1800003   -2925040.
 -14.9899998   -2925628.75
 -14.8000002   -2926216.
 -14.6099997   -2926797.25
 -14.4200001   -2927375.
 -14.2299995   -2927948.75
 -14.04   -2928517.5
 -13.8500004   -2929085.
 -13.6599998   -2929653.25
 -13.4700003   -2930222.75
 -13.2799997   -2930794.
 -13.0900002   -2931367.25
 -12.8999996   -2931941.25
 -12.71   -2932513.5
 -12.5200005   -2933082.
 -12.3299999   -2933647.5
 -12.1400003   -2934211.
 -11.9499998   -2934775.25
 -11.7600002   -2935342.
 -11.5699997   -2935915.
 -11.3800001   -2936494.25
 -11.1899996   -2937077.75
 -11.   -2937662.75
 -10.8100004   -2938247.75
 -10.6199999   -2938831.
 -10.4300003   -2939412.
 -10.2399998   -2939993.25
 -10.0500002   -2940575.
 -9.85999966   -2941160.75
 -9.67000008   -2941751.25
 -9.47999954   -2942342.
 -9.28999996   -2942937.25
 -9.10000038   -2943532.25
 -8.90999985   -2944126.25
 -8.72000027   -2944718.75
 -8.52999973   -2945311.5
 -8.34000015   -2945906.75
 -8.14999962   -2946503.5
 -7.96000004   -2947102.75
 -7.76999998   -2947705.75
 -7.57999992   -2948306.5
 -7.38999987   -2948908.25
 -7.19999981   -2949510.5
 -7.01000023   -2950112.75
 -6.82000017   -2950716.
 -6.63000011   -2951322.
 -6.44000006   -2951930.5
 -6.25   -2952539.25
 -6.05999994   -2953149.
 -5.86999989   -2953756.75
 -5.67999983   -2954365.5
 -5.48999977   -2954975.75
 -5.30000019   -2955587.5
 -5.11000013   -2956202.75
 -4.92000008   -2956822.
 -4.73000002   -2957444.25
 -4.53999996   -2958067.5
 -4.3499999   -2958688.5
 -4.15999985   -2959307.
 -3.97000003   -2959921.
 -3.77999997   -2960532.
 -3.58999991   -2961139.75
 -3.4000001   -2961748.25
 -3.21000004   -2962355.5
 -3.01999998   -2962963.5
 -2.82999992   -2963571.75
 -2.6400001   -2964177.25
 -2.45000005   -2964782.
 -2.25999999   -2965384.
 -2.06999993   -2965985.75
 -1.88   -2966589.75
 -1.69000006   -2967195.25
 -1.5   -2967801.5
 -1.30999994   -2968412.25
 -1.12   -2969024.
 -0.930000007   -2969636.
 -0.74000001   -2970247.75
 -0.550000012   -2970859.
 -0.360000014   -2971467.75
 -0.170000002   -2972073.25
 1.999999955E-2   -2972679.25
 0.209999993   -2973284.5
 0.400000006   -2973888.75
 0.589999974   -2974493.
 0.779999971   -2975096.
 0.970000029   -2975698.5
 1.15999997   -2976301.
 1.35000002   -2976905.25
 1.53999996   -2977512.5
 1.73000002   -2978120.
 1.91999996   -2978730.
 2.1099999   -2979340.5
 2.29999995   -2979950.25
 2.49000001   -2980558.25
 2.68000007   -2981165.75
 2.86999989   -2981773.5
 3.05999994   -2982382.75
 3.25   -2982995.75
 3.44000006   -2983614.5
 3.63000011   -2984236.5
 3.81999993   -2984857.75
 4.01000023   -2985480.5
 4.19999981   -2986099.
 4.38999987   -2986720.25
 4.57999992   -2987341.5
 4.76999998   -2987968.75
 4.96000004   -2988601.25
 5.1500001   -2989237.5
 5.34000015   -2989873.
 5.53000021   -2990508.5
 5.71999979   -2991140.5
 5.90999985   -2991766.
 6.0999999   -2992390.75
 6.28999996   -2993015.5
 6.48000002   -2993642.25
 6.67000008   -2994268.25
 6.86000013   -2994894.25
 7.05000019   -2995513.
 7.23999977   -2996127.
 7.42999983   -2996733.5
 7.61999989   -2997335.75
 7.80999994   -2997937.
 8.   -2998541.5
 8.18999958   -2999148.5
 8.38000011   -2999758.
 8.56999969   -3000370.
 8.76000023   -3000981.25
 8.94999981   -3001589.75
 9.14000034   -3002195.5
 9.32999992   -3002801.5
 9.52000046   -3003412.
 9.71000004   -3004025.75
 9.89999962   -3004644.5
 10.0900002   -3005262.
 10.2799997   -3005876.
 10.4700003   -3006482.5
 10.6599998   -3007084.25
 10.8500004   -3007682.75
 11.04   -3008281.25
 11.2299995   -3008883.75
 11.4200001   -3009498.5
 11.6099997   -3010119.
 11.8000002   -3010741.75
 11.9899998   -3011364.
 12.1800003   -3011980.25
 12.3699999   -3012591.25
 12.5600004   -3013201.5
 12.75   -3013814.25
 12.9399996   -3014432.75
 13.1300001   -3015055.25
 13.3199997   -3015679.75
 13.5100002   -3016306.
 13.6999998   -3016927.75
 13.8900003   -3017548.25
 14.0799999   -3018167.5
 14.2700005   -3018791.
 14.46   -3019420.5
 14.6499996   -3020059.25
 14.8400002   -3020703.75
 15.0299997   -3021348.
 15.2200003   -3021991.5
 15.4099998   -3022626.5
 15.6000004   -3023256.75
 15.79   -3023886.25
 15.9799995   -3024519.5
 16.1700001   -3025159.5
 16.3600006   -3025806.
 16.5499992   -3026454.5
 16.7399998   -3027098.
 16.9300003   -3027732.
 17.1200008   -3028359.
 17.3099995   -3028978.
 17.5   -3029597.75
 17.6900005   -3030221.25
 17.8799992   -3030851.25
 18.0699997   -3031483.
 18.2600002   -3032114.5
 18.4500008   -3032737.25
 18.6399994   -3033351.25
 18.8299999   -3033960.
 19.0200005   -3034568.25
 19.2099991   -3035184.5
 19.3999996   -3035812.25
 19.5900002   -3036451.
 19.7800007   -3037090.25
 19.9699993   -3037725.5
 20.1599998   -3038351.
 20.3500004   -3038964.5
 20.5400009   -3039572.25
 20.7299995   -3040179.75
 20.9200001   -3040792.25
 21.1100006   -3041413.
 21.2999992   -3042037.5
 21.4899998   -3042662.75
 21.6800003   -3043281.75
 21.8700008   -3043895.
 22.0599995   -3044498.
 22.25   -3045100.25
 22.4400005   -3045704.5
 22.6299992   -3046314.
 22.8199997   -3046928.75
 23.0100002   -3047545.25
 23.2000008   -3048160.25
 23.3899994   -3048766.75
 23.5799999   -3049367.5
 23.7700005   -3049964.25
 23.9599991   -3050559.5
 24.1499996   -3051158.75
 24.3400002   -3051762.
 24.5300007   -3052368.
 24.7199993   -3052974.75
 24.9099998   -3053577.75
 25.1000004   -3054171.75
 25.2900009   -3054761.
 25.4799995   -3055345.5
 25.6700001   -3055929.
 25.8600006   -3056515.5
 26.0499992   -3057103.25
 26.2399998   -3057691.
 26.4300003   -3058275.5
 26.6200008   -3058858.25
 26.8099995   -3059433.75
