 -30.   73148.9063
 -29.8099995   73152.2578
 -29.6200008   73145.4609
 -29.4300003   73135.4688
 -29.2399998   73126.7188
 -29.0499992   73123.6094
 -28.8600006   73128.4844
 -28.6700001   73139.5859
 -28.4799995   73156.0703
 -28.2900009   73171.4141
 -28.1000004   73182.1406
 -27.9099998   73185.0234
 -27.7199993   73181.1094
 -27.5300007   73171.4609
 -27.3400002   73161.5547
 -27.1499996   73155.3828
 -26.9599991   73156.7266
 -26.7700005   73166.1797
 -26.5799999   73188.7031
 -26.3899994   73218.2266
 -26.2000008   73250.0547
 -26.0100002   73277.8203
 -25.8199997   73297.2813
 -25.6299992   73309.6875
 -25.4400005   73312.3359
 -25.25   73313.3281
 -25.0599995   73315.3516
 -24.8700008   73324.3672
 -24.6800003   73340.0859
 -24.4899998   73365.7344
 -24.2999992   73396.4688
 -24.1100006   73430.3125
 -23.9200001   73460.1094
 -23.7299995   73482.5
 -23.5400009   73496.0703
 -23.3500004   73503.1641
 -23.1599998   73507.2969
 -22.9699993   73512.3828
 -22.7800007   73522.1875
 -22.5900002   73540.4063
 -22.3999996   73563.9297
 -22.2099991   73591.75
 -22.0200005   73619.125
 -21.8299999   73644.4766
 -21.6399994   73662.4688
 -21.4500008   73673.0625
 -21.2600002   73674.0547
 -21.0699997   73671.6406
 -20.8799992   73669.2656
 -20.6900005   73669.8516
 -20.5   73678.7031
 -20.3099995   73692.0391
 -20.1200008   73707.5938
 -19.9300003   73727.2109
 -19.7399998   73742.6328
 -19.5499992   73754.0313
 -19.3600006   73760.0938
 -19.1700001   73759.375
 -18.9799995   73754.3438
 -18.7900009   73748.6797
 -18.6000004   73746.4453
 -18.4099998   73749.9297
 -18.2199993   73759.8672
 -18.0300007   73775.5
 -17.8400002   73794.0703
 -17.6499996   73809.7891
 -17.4599991   73822.7344
 -17.2700005   73829.6641
 -17.0799999   73831.3828
 -16.8899994   73831.9375
 -16.7000008   73832.8438
 -16.5100002   73835.0781
 -16.3199997   73846.4297
 -16.1299992   73864.9141
 -15.9399996   73888.3828
 -15.75   73914.875
 -15.5600004   73936.2344
 -15.3699999   73954.4219
 -15.1800003   73963.5156
 -14.9899998   73971.2578
 -14.8000002   73977.7031
 -14.6099997   73987.75
 -14.4200001   74002.7656
 -14.2299995   74020.9531
 -14.04   74045.5078
 -13.8500004   74072.9375
 -13.6599998   74100.9453
 -13.4700003   74124.5313
 -13.2799997   74146.7891
 -13.0900002   74163.3438
 -12.8999996   74179.9531
 -12.71   74198.1953
 -12.5200005   74219.5781
 -12.3299999   74244.5234
 -12.1400003   74273.5547
 -11.9499998   74303.2188
 -11.7600002   74331.1953
 -11.5699997   74357.625
 -11.3800001   74378.2734
 -11.1899996   74398.2734
 -11.   74414.8672
 -10.8100004   74428.9297
 -10.6199999   74445.0234
 -10.4300003   74461.3672
 -10.2399998   74483.1563
 -10.0500002   74508.6094
 -9.85999966   74533.9063
 -9.67000008   74558.1953
 -9.47999954   74578.2734
 -9.28999996   74594.9922
 -9.10000038   74609.25
 -8.90999985   74621.1953
 -8.72000027   74629.6406
 -8.52999973   74637.0859
 -8.34000015   74645.4844
 -8.14999962   74660.1953
 -7.96000004   74677.9453
 -7.76999998   74698.2422
 -7.57999992   74723.375
 -7.38999987   74745.4375
 -7.19999981   74760.9141
 -7.01000023   74771.8203
 -6.82000017   74776.0938
 -6.63000011   74776.7344
 -6.44000006   74774.8984
 -6.25   74775.9141
 -6.05999994   74781.8125
 -5.86999989   74789.3594
 -5.67999983   74798.9453
 -5.48999977   74809.1484
 -5.30000019   74816.7891
 -5.11000013   74816.6875
 -4.92000008   74812.4141
 -4.73000002   74805.9375
 -4.53999996   74799.1406
 -4.3499999   74797.6641
 -4.15999985   74797.8906
 -3.97000003   74803.1953
 -3.77999997   74809.6094
 -3.58999991   74813.8516
 -3.4000001   74815.1094
 -3.21000004   74813.1641
 -3.01999998   74810.9766
 -2.82999992   74806.6797
 -2.6400001   74804.2422
 -2.45000005   74804.8281
 -2.25999999   74807.7891
 -2.06999993   74814.8516
 -1.88   74822.9453
 -1.69000006   74830.9531
 -1.5   74837.9375
 -1.30999994   74843.4297
 -1.12   74846.7188
 -0.930000007   74848.7656
 -0.74000001   74851.5078
 -0.550000012   74852.7109
 -0.360000014   74853.0781
 -0.170000002   74855.1797
 1.999999955E-2   74859.4766
 0.209999993   74866.2344
 0.400000006   74877.2578
 0.589999974   74889.6641
 0.779999971   74902.2578
 0.970000029   74913.2266
 1.15999997   74918.4766
 1.35000002   74920.9766
 1.53999996   74921.8359
 1.73000002   74920.
 1.91999996   74918.
 2.1099999   74921.2422
 2.29999995   74929.3125
 2.49000001   74942.0703
 2.68000007   74957.2422
 2.86999989   74970.4375
 3.05999994   74984.3281
 3.25   74993.3984
 3.44000006   75001.25
 3.63000011   75010.1016
 3.81999993   75019.0391
 4.01000023   75033.3125
 4.19999981   75053.0156
 4.38999987   75079.6094
 4.57999992   75106.9063
 4.76999998   75137.9688
 4.96000004   75167.6875
 5.1500001   75192.3516
 5.34000015   75209.3984
 5.53000021   75221.3984
 5.71999979   75230.0078
 5.90999985   75233.7578
 6.0999999   75242.2109
 6.28999996   75254.4063
 6.48000002   75268.7656
 6.67000008   75291.8828
 6.86000013   75317.1719
 7.05000019   75343.6875
 7.23999977   75366.7813
 7.42999983   75382.3906
 7.61999989   75393.8125
 7.80999994   75399.0703
 8.   75402.8984
 8.18999958   75409.6094
 8.38000011   75420.9297
 8.56999969   75438.9844
 8.76000023   75462.4219
 8.94999981   75489.7031
 9.14000034   75515.4531
 9.32999992   75540.4688
 9.52000046   75558.4375
 9.71000004   75571.3906
 9.89999962   75578.4453
 10.0900002   75582.2578
 10.2799997   75586.0625
 10.4700003   75595.0547
 10.6599998   75611.2578
 10.8500004   75633.5938
 11.04   75660.7578
 11.2299995   75692.8828
 11.4200001   75723.4922
 11.6099997   75750.4922
 11.8000002   75771.5547
 11.9899998   75785.6172
 12.1800003   75794.4141
 12.3699999   75800.2578
 12.5600004   75808.5391
 12.75   75821.8203
 12.9399996   75838.7266
 13.1300001   75860.5703
 13.3199997   75884.4219
 13.5100002   75909.3125
 13.6999998   75929.3438
 13.8900003   75945.1328
 14.0799999   75958.4063
 14.2700005   75968.1797
 14.46   75978.3359
 14.6499996   75990.4766
 14.8400002   76007.7422
 15.0299997   76030.1797
 15.2200003   76057.2031
 15.4099998   76085.2891
 15.6000004   76117.4453
 15.79   76146.5781
 15.9799995   76173.6328
 16.1700001   76197.4063
 16.3600006   76220.0625
 16.5499992   76239.8516
 16.7399998   76259.0938
 16.9300003   76277.7578
 17.1200008   76299.3594
 17.3099995   76321.8594
 17.5   76347.3125
 17.6900005   76373.4688
 17.8799992   76401.0938
 18.0699997   76428.9063
 18.2600002   76452.6016
 18.4500008   76468.3125
 18.6399994   76478.1172
 18.8299999   76480.6797
 19.0200005   76477.7578
 19.2099991   76475.6016
 19.3999996   76478.6484
 19.5900002   76489.4531
 19.7800007   76511.4063
 19.9699993   76541.4922
 20.1599998   76575.3594
 20.3500004   76605.3906
 20.5400009   76630.4688
 20.7299995   76644.9922
 20.9200001   76650.9688
 21.1100006   76653.2813
 21.2999992   76654.7578
 21.4899998   76661.5234
 21.6800003   76677.7578
 21.8700008   76703.2969
 22.0599995   76735.3125
 22.25   76771.3672
 22.4400005   76803.4922
 22.6299992   76827.7813
 22.8199997   76843.3594
 23.0100002   76853.0547
 23.2000008   76857.4063
 23.3899994   76862.8438
 23.5799999   76871.5313
 23.7700005   76887.7344
 23.9599991   76909.6094
 24.1499996   76937.4531
 24.3400002   76966.6484
 24.5300007   76994.7344
 24.7199993   77016.9063
 24.9099998   77033.7031
 25.1000004   77044.0313
 25.2900009   77049.4375
 25.4799995   77057.3984
 25.6700001   77068.2266
 25.8600006   77087.5547
 26.0499992   77114.3047
 26.2399998   77147.8438
 26.4300003   77183.0938
 26.6200008   77217.5469
 26.8099995   77246.9375
