 -30.   -7017955.
 -29.8099995   -7019330.5
 -29.6200008   -7020691.
 -29.4300003   -7022080.
 -29.2399998   -7023507.
 -29.0499992   -7024938.
 -28.8600006   -7026330.
 -28.6700001   -7027682.
 -28.4799995   -7029024.
 -28.2900009   -7030401.5
 -28.1000004   -7031824.
 -27.9099998   -7033262.5
 -27.7199993   -7034665.5
 -27.5300007   -7036022.
 -27.3400002   -7037358.5
 -27.1499996   -7038724.
 -26.9599991   -7040137.5
 -26.7700005   -7041571.5
 -26.5799999   -7042978.5
 -26.3899994   -7044339.
 -26.2000008   -7045677.
 -26.0100002   -7047039.
 -25.8199997   -7048445.5
 -25.6299992   -7049876.
 -25.4400005   -7051286.
 -25.25   -7052655.
 -25.0599995   -7054001.
 -24.8700008   -7055366.
 -24.6800003   -7056779.
 -24.4899998   -7058221.5
 -24.2999992   -7059654.
 -24.1100006   -7061048.
 -23.9200001   -7062410.
 -23.7299995   -7063781.5
 -23.5400009   -7065190.5
 -23.3500004   -7066629.5
 -23.1599998   -7068066.
 -22.9699993   -7069466.5
 -22.7800007   -7070838.
 -22.5900002   -7072217.
 -22.3999996   -7073635.
 -22.2099991   -7075090.5
 -22.0200005   -7076547.
 -21.8299999   -7077974.
 -21.6399994   -7079368.5
 -21.4500008   -7080760.5
 -21.2600002   -7082182.5
 -21.0699997   -7083637.5
 -20.8799992   -7085101.
 -20.6900005   -7086538.
 -20.5   -7087940.
 -20.3099995   -7089338.
 -20.1200008   -7090760.
 -19.9300003   -7092216.5
 -19.7399998   -7093684.5
 -19.5499992   -7095128.5
 -19.3600006   -7096536.5
 -19.1700001   -7097930.
 -18.9799995   -7099348.
 -18.7900009   -7100796.5
 -18.6000004   -7102261.
 -18.4099998   -7103707.5
 -18.2199993   -7105121.5
 -18.0300007   -7106521.5
 -17.8400002   -7107938.5
 -17.6499996   -7109387.
 -17.4599991   -7110850.5
 -17.2700005   -7112298.
 -17.0799999   -7113710.5
 -16.8899994   -7115104.5
 -16.7000008   -7116507.
 -16.5100002   -7117938.
 -16.3199997   -7119388.5
 -16.1299992   -7120828.5
 -15.9399996   -7122241.
 -15.75   -7123632.5
 -15.5600004   -7125031.5
 -15.3699999   -7126455.5
 -15.1800003   -7127898.
 -14.9899998   -7129332.5
 -14.8000002   -7130740.5
 -14.6099997   -7132129.5
 -14.4200001   -7133519.
 -14.2299995   -7134930.5
 -14.04   -7136361.5
 -13.8500004   -7137793.
 -13.6599998   -7139207.5
 -13.4700003   -7140601.
 -13.2799997   -7141994.5
 -13.0900002   -7143402.5
 -12.8999996   -7144828.
 -12.71   -7146257.
 -12.5200005   -7147671.
 -12.3299999   -7149066.
 -12.1400003   -7150457.5
 -11.9499998   -7151866.5
 -11.7600002   -7153295.
 -11.5699997   -7154734.
 -11.3800001   -7156163.
 -11.1899996   -7157572.5
 -11.   -7158977.5
 -10.8100004   -7160391.
 -10.6199999   -7161815.
 -10.4300003   -7163250.5
 -10.2399998   -7164678.
 -10.0500002   -7166092.
 -9.85999966   -7167496.5
 -9.67000008   -7168907.5
 -9.47999954   -7170337.
 -9.28999996   -7171777.5
 -9.10000038   -7173214.
 -8.90999985   -7174638.
 -8.72000027   -7176055.
 -8.52999973   -7177474.
 -8.34000015   -7178904.
 -8.14999962   -7180341.5
 -7.96000004   -7181778.
 -7.76999998   -7183203.5
 -7.57999992   -7184622.
 -7.38999987   -7186040.
 -7.19999981   -7187471.5
 -7.01000023   -7188911.5
 -6.82000017   -7190354.
 -6.63000011   -7191790.
 -6.44000006   -7193221.5
 -6.25   -7194658.
 -6.05999994   -7196111.
 -5.86999989   -7197574.5
 -5.67999983   -7199044.
 -5.48999977   -7200506.5
 -5.30000019   -7201961.
 -5.11000013   -7203411.5
 -4.92000008   -7204864.5
 -4.73000002   -7206319.5
 -4.53999996   -7207775.
 -4.3499999   -7209221.5
 -4.15999985   -7210655.5
 -3.97000003   -7212088.
 -3.77999997   -7213528.5
 -3.58999991   -7214981.
 -3.4000001   -7216440.
 -3.21000004   -7217896.5
 -3.01999998   -7219348.
 -2.82999992   -7220798.5
 -2.6400001   -7222257.5
 -2.45000005   -7223724.
 -2.25999999   -7225199.
 -2.06999993   -7226671.5
 -1.88   -7228138.
 -1.69000006   -7229604.
 -1.5   -7231073.5
 -1.30999994   -7232553.
 -1.12   -7234041.
 -0.930000007   -7235525.5
 -0.74000001   -7236998.5
 -0.550000012   -7238464.
 -0.360000014   -7239928.5
 -0.170000002   -7241394.
 1.999999955E-2   -7242863.
 0.209999993   -7244330.5
 0.400000006   -7245792.5
 0.589999974   -7247246.5
 0.779999971   -7248700.5
 0.970000029   -7250163.
 1.15999997   -7251625.
 1.35000002   -7253088.
 1.53999996   -7254544.
 1.73000002   -7255993.
 1.91999996   -7257439.
 2.1099999   -7258886.5
 2.29999995   -7260339.5
 2.49000001   -7261797.
 2.68000007   -7263254.5
 2.86999989   -7264710.5
 3.05999994   -7266167.
 3.25   -7267624.5
 3.44000006   -7269087.
 3.63000011   -7270553.5
 3.81999993   -7272015.5
 4.01000023   -7273473.
 4.19999981   -7274919.
 4.38999987   -7276361.5
 4.57999992   -7277804.5
 4.76999998   -7279249.
 4.96000004   -7280692.
 5.1500001   -7282126.5
 5.34000015   -7283557.
 5.53000021   -7284985.5
 5.71999979   -7286418.
 5.90999985   -7287854.
 6.0999999   -7289289.5
 6.28999996   -7290717.
 6.48000002   -7292140.5
 6.67000008   -7293561.5
 6.86000013   -7294989.5
 7.05000019   -7296431.
 7.23999977   -7297873.
 7.42999983   -7299317.
 7.61999989   -7300757.5
 7.80999994   -7302197.
 8.   -7303640.5
 8.18999958   -7305091.
 8.38000011   -7306545.5
 8.56999969   -7307991.5
 8.76000023   -7309431.5
 8.94999981   -7310866.5
 9.14000034   -7312307.
 9.32999992   -7313757.5
 9.52000046   -7315207.5
 9.71000004   -7316653.5
 9.89999962   -7318089.5
 10.0900002   -7319520.
 10.2799997   -7320949.
 10.4700003   -7322387.5
 10.6599998   -7323827.5
 10.8500004   -7325264.5
 11.04   -7326689.5
 11.2299995   -7328108.
 11.4200001   -7329527.5
 11.6099997   -7330960.5
 11.8000002   -7332403.
 11.9899998   -7333840.
 12.1800003   -7335272.5
 12.3699999   -7336695.5
 12.5600004   -7338122.
 12.75   -7339555.5
 12.9399996   -7341002.5
 13.1300001   -7342453.
 13.3199997   -7343901.5
 13.5100002   -7345344.5
 13.6999998   -7346792.
 13.8900003   -7348248.
 14.0799999   -7349711.5
 14.2700005   -7351176.
 14.46   -7352628.
 14.6499996   -7354068.5
 14.8400002   -7355507.
 15.0299997   -7356954.
 15.2200003   -7358413.
 15.4099998   -7359875.5
 15.6000004   -7361331.5
 15.79   -7362780.5
 15.9799995   -7364230.5
 16.1700001   -7365689.
 16.3600006   -7367155.5
 16.5499992   -7368622.
 16.7399998   -7370078.5
 16.9300003   -7371524.
 17.1200008   -7372963.
 17.3099995   -7374409.
 17.5   -7375864.5
 17.6900005   -7377319.5
 17.8799992   -7378768.5
 18.0699997   -7380206.5
 18.2600002   -7381645.5
 18.4500008   -7383094.
 18.6399994   -7384554.5
 18.8299999   -7386021.5
 19.0200005   -7387482.
 19.2099991   -7388930.5
 19.3999996   -7390378.
 19.5900002   -7391831.5
 19.7800007   -7393297.5
 19.9699993   -7394770.
 20.1599998   -7396231.5
 20.3500004   -7397680.5
 20.5400009   -7399123.5
 20.7299995   -7400573.5
 20.9200001   -7402033.
 21.1100006   -7403496.
 21.2999992   -7404945.
 21.4899998   -7406377.5
 21.6800003   -7407803.
 21.8700008   -7409235.
 22.0599995   -7410679.5
 22.25   -7412132.5
 22.4400005   -7413575.
 22.6299992   -7415004.
 22.8199997   -7416428.5
 23.0100002   -7417861.5
 23.2000008   -7419311.5
 23.3899994   -7420768.
 23.5799999   -7422214.
 23.7700005   -7423642.5
 23.9599991   -7425060.5
 24.1499996   -7426483.
 24.3400002   -7427925.5
 24.5300007   -7429376.
 24.7199993   -7430821.
 24.9099998   -7432253.
 25.1000004   -7433672.5
 25.2900009   -7435103.
 25.4799995   -7436551.5
 25.6700001   -7438013.5
 25.8600006   -7439465.5
 26.0499992   -7440900.5
 26.2399998   -7442320.
 26.4300003   -7443744.5
 26.6200008   -7445190.5
 26.8099995   -7446650.5
