 -30.   8518314.
 -29.8099995   8520101.
 -29.6200008   8521926.
 -29.4300003   8523772.
 -29.2399998   8525614.
 -29.0499992   8527436.
 -28.8600006   8529226.
 -28.6700001   8530989.
 -28.4799995   8532731.
 -28.2900009   8534474.
 -28.1000004   8536236.
 -27.9099998   8538029.
 -27.7199993   8539858.
 -27.5300007   8541717.
 -27.3400002   8543589.
 -27.1499996   8545454.
 -26.9599991   8547293.
 -26.7700005   8549092.
 -26.5799999   8550848.
 -26.3899994   8552574.
 -26.2000008   8554284.
 -26.0100002   8556006.
 -25.8199997   8557756.
 -25.6299992   8559542.
 -25.4400005   8561365.
 -25.25   8563209.
 -25.0599995   8565058.
 -24.8700008   8566890.
 -24.6800003   8568689.
 -24.4899998   8570448.
 -24.2999992   8572174.
 -24.1100006   8573883.
 -23.9200001   8575594.
 -23.7299995   8577328.
 -23.5400009   8579095.
 -23.3500004   8580897.
 -23.1599998   8582723.
 -22.9699993   8584555.
 -22.7800007   8586375.
 -22.5900002   8588169.
 -22.3999996   8589927.
 -22.2099991   8591648.
 -22.0200005   8593344.
 -21.8299999   8595035.
 -21.6399994   8596737.
 -21.4500008   8598467.
 -21.2600002   8600230.
 -21.0699997   8602021.
 -20.8799992   8603826.
 -20.6900005   8605627.
 -20.5   8607408.
 -20.3099995   8609159.
 -20.1200008   8610874.
 -19.9300003   8612561.
 -19.7399998   8614233.
 -19.5499992   8615907.
 -19.3600006   8617604.
 -19.1700001   8619331.
 -18.9799995   8621089.
 -18.7900009   8622871.
 -18.6000004   8624659.
 -18.4099998   8626431.
 -18.2199993   8628176.
 -18.0300007   8629892.
 -17.8400002   8631580.
 -17.6499996   8633250.
 -17.4599991   8634918.
 -17.2700005   8636598.
 -17.0799999   8638305.
 -16.8899994   8640039.
 -16.7000008   8641801.
 -16.5100002   8643574.
 -16.3199997   8645338.
 -16.1299992   8647081.
 -15.9399996   8648789.
 -15.75   8650467.
 -15.5600004   8652121.
 -15.3699999   8653765.
 -15.1800003   8655414.
 -14.9899998   8657082.
 -14.8000002   8658775.
 -14.6099997   8660495.
 -14.4200001   8662235.
 -14.2299995   8663978.
 -14.04   8665710.
 -13.8500004   8667414.
 -13.6599998   8669090.
 -13.4700003   8670739.
 -13.2799997   8672375.
 -13.0900002   8674013.
 -12.8999996   8675665.
 -12.71   8677341.
 -12.5200005   8679045.
 -12.3299999   8680770.
 -12.1400003   8682507.
 -11.9499998   8684243.
 -11.7600002   8685960.
 -11.5699997   8687648.
 -11.3800001   8689310.
 -11.1899996   8690951.
 -11.   8692589.
 -10.8100004   8694238.
 -10.6199999   8695908.
 -10.4300003   8697606.
 -10.2399998   8699328.
 -10.0500002   8701067.
 -9.85999966   8702812.
 -9.67000008   8704545.
 -9.47999954   8706258.
 -9.28999996   8707941.
 -9.10000038   8709603.
 -8.90999985   8711253.
 -8.72000027   8712906.
 -8.52999973   8714577.
 -8.34000015   8716271.
 -8.14999962   8717993.
 -7.96000004   8719733.
 -7.76999998   8721479.
 -7.57999992   8723220.
 -7.38999987   8724947.
 -7.19999981   8726651.
 -7.01000023   8728332.
 -6.82000017   8729996.
 -6.63000011   8731656.
 -6.44000006   8733325.
 -6.25   8735017.
 -6.05999994   8736735.
 -5.86999989   8738477.
 -5.67999983   8740230.
 -5.48999977   8741987.
 -5.30000019   8743733.
 -5.11000013   8745459.
 -4.92000008   8747162.
 -4.73000002   8748841.
 -4.53999996   8750508.
 -4.3499999   8752170.
 -4.15999985   8753844.
 -3.97000003   8755537.
 -3.77999997   8757254.
 -3.58999991   8758987.
 -3.4000001   8760726.
 -3.21000004   8762456.
 -3.01999998   8764171.
 -2.82999992   8765863.
 -2.6400001   8767531.
 -2.45000005   8769184.
 -2.25999999   8770828.
 -2.06999993   8772479.
 -1.88   8774144.
 -1.69000006   8775834.
 -1.5   8777545.
 -1.30999994   8779276.
 -1.12   8781009.
 -0.930000007   8782731.
 -0.74000001   8784434.
 -0.550000012   8786109.
 -0.360000014   8787766.
 -0.170000002   8789409.
 1.999999955E-2   8791051.
 0.209999993   8792702.
 0.400000006   8794373.
 0.589999974   8796064.
 0.779999971   8797772.
 0.970000029   8799487.
 1.15999997   8801199.
 1.35000002   8802894.
 1.53999996   8804568.
 1.73000002   8806223.
 1.91999996   8807865.
 2.1099999   8809504.
 2.29999995   8811153.
 2.49000001   8812818.
 2.68000007   8814499.
 2.86999989   8816199.
 3.05999994   8817909.
 3.25   8819617.
 3.44000006   8821313.
 3.63000011   8822991.
 3.81999993   8824644.
 4.01000023   8826277.
 4.19999981   8827898.
 4.38999987   8829519.
 4.57999992   8831150.
 4.76999998   8832798.
 4.96000004   8834466.
 5.1500001   8836148.
 5.34000015   8837837.
 5.53000021   8839526.
 5.71999979   8841205.
 5.90999985   8842865.
 6.0999999   8844506.
 6.28999996   8846134.
 6.48000002   8847760.
 6.67000008   8849393.
 6.86000013   8851043.
 7.05000019   8852710.
 7.23999977   8854396.
 7.42999983   8856090.
 7.61999989   8857779.
 7.80999994   8859453.
 8.   8861110.
 8.18999958   8862741.
 8.38000011   8864351.
 8.56999969   8865952.
 8.76000023   8867553.
 8.94999981   8869165.
 9.14000034   8870797.
 9.32999992   8872452.
 9.52000046   8874125.
 9.71000004   8875806.
 9.89999962   8877485.
 10.0900002   8879153.
 10.2799997   8880803.
 10.4700003   8882436.
 10.6599998   8884056.
 10.8500004   8885674.
 11.04   8887297.
 11.2299995   8888936.
 11.4200001   8890593.
 11.6099997   8892269.
 11.8000002   8893956.
 11.9899998   8895643.
 12.1800003   8897317.
 12.3699999   8898971.
 12.5600004   8900601.
 12.75   8902208.
 12.9399996   8903802.
 13.1300001   8905390.
 13.3199997   8906990.
 13.5100002   8908605.
 13.6999998   8910240.
 13.8900003   8911891.
 14.0799999   8913551.
 14.2700005   8915203.
 14.46   8916840.
 14.6499996   8918454.
 14.8400002   8920052.
 15.0299997   8921637.
 15.2200003   8923222.
 15.4099998   8924820.
 15.6000004   8926441.
 15.79   8928089.
 15.9799995   8929757.
 16.1700001   8931436.
 16.3600006   8933114.
 16.5499992   8934779.
 16.7399998   8936424.
 16.9300003   8938050.
 17.1200008   8939660.
 17.3099995   8941268.
 17.5   8942882.
 17.6900005   8944511.
 17.8799992   8946160.
 18.0699997   8947828.
 18.2600002   8949507.
 18.4500008   8951186.
 18.6399994   8952857.
 18.8299999   8954506.
 19.0200005   8956135.
 19.2099991   8957740.
 19.3999996   8959333.
 19.5900002   8960922.
 19.7800007   8962515.
 19.9699993   8964120.
 20.1599998   8965746.
 20.3500004   8967385.
 20.5400009   8969031.
 20.7299995   8970675.
 20.9200001   8972303.
 21.1100006   8973912.
 21.2999992   8975502.
 21.4899998   8977079.
 21.6800003   8978653.
 21.8700008   8980240.
 22.0599995   8981847.
 22.25   8983475.
 22.4400005   8985119.
 22.6299992   8986774.
 22.8199997   8988428.
 23.0100002   8990067.
 23.2000008   8991689.
 23.3899994   8993288.
 23.5799999   8994873.
 23.7700005   8996451.
 23.9599991   8998034.
 24.1499996   8999632.
 24.3400002   9001249.
 24.5300007   9002878.
 24.7199993   9004514.
 24.9099998   9006149.
 25.1000004   9007775.
 25.2900009   9009380.
 25.4799995   9010969.
 25.6700001   9012541.
 25.8600006   9014101.
 26.0499992   9015663.
 26.2399998   9017233.
 26.4300003   9018821.
 26.6200008   9020428.
 26.8099995   9022048.
