 -30.00000000   2608799.000
 -29.89312553   2609101.750
 -29.78624916   2609410.250
 -29.67937469   2609721.250
 -29.57250023   2610036.500
 -29.46562576   2610352.250
 -29.35874939   2610670.500
 -29.25187492   2610989.500
 -29.14500046   2611306.250
 -29.03812408   2611618.500
 -28.93124962   2611925.500
 -28.82437515   2612228.000
 -28.71750069   2612524.250
 -28.61062431   2612816.000
 -28.50374985   2613103.500
 -28.39687538   2613392.500
 -28.29000092   2613682.750
 -28.18312454   2613978.250
 -28.07625008   2614276.500
 -27.96937561   2614582.000
 -27.86249924   2614890.750
 -27.75562477   2615204.000
 -27.64875031   2615518.750
 -27.54187584   2615835.250
 -27.43499947   2616150.250
 -27.32812500   2616463.750
 -27.22125053   2616776.500
 -27.11437416   2617087.500
 -27.00749969   2617395.250
 -26.90062523   2617702.500
 -26.79375076   2618007.750
 -26.68687439   2618310.250
 -26.57999992   2618609.500
 -26.47312546   2618907.000
 -26.36624908   2619204.000
 -26.25937462   2619502.750
 -26.15250015   2619801.250
 -26.04562569   2620101.750
 -25.93874931   2620406.000
 -25.83187485   2620710.250
 -25.72500038   2621017.000
 -25.61812592   2621326.750
 -25.51124954   2621637.750
 -25.40437508   2621951.750
 -25.29750061   2622266.500
 -25.19062424   2622586.000
 -25.08374977   2622905.750
 -24.97687531   2623229.500
 -24.87000084   2623552.500
 -24.76312447   2623875.000
 -24.65625000   2624197.500
 -24.54937553   2624517.000
 -24.44249916   2624832.750
 -24.33562469   2625143.750
 -24.22875023   2625453.500
 -24.12187576   2625757.000
 -24.01499939   2626057.750
 -23.90812492   2626357.750
 -23.80125046   2626656.500
 -23.69437408   2626957.750
 -23.58749962   2627258.750
 -23.48062515   2627563.000
 -23.37375069   2627869.250
 -23.26687431   2628177.000
 -23.15999985   2628487.000
 -23.05312538   2628799.500
 -22.94625092   2629113.000
 -22.83937454   2629427.250
 -22.73250008   2629743.500
 -22.62562561   2630059.000
 -22.51874924   2630374.000
 -22.41187477   2630687.250
 -22.30500031   2630996.500
 -22.19812584   2631303.250
 -22.09124947   2631603.750
 -21.98437500   2631901.000
 -21.87750053   2632192.750
 -21.77062416   2632483.250
 -21.66374969   2632768.750
 -21.55687523   2633057.000
 -21.45000076   2633343.750
 -21.34312439   2633632.500
 -21.23624992   2633924.250
 -21.12937546   2634220.000
 -21.02249908   2634521.500
 -20.91562462   2634827.500
 -20.80875015   2635138.250
 -20.70187569   2635454.500
 -20.59499931   2635771.500
 -20.48812485   2636089.750
 -20.38125038   2636407.250
 -20.27437592   2636721.500
 -20.16749954   2637029.750
 -20.06062508   2637334.500
 -19.95375061   2637632.250
 -19.84687424   2637925.000
 -19.73999977   2638212.750
 -19.63312531   2638497.750
 -19.52625084   2638780.750
 -19.41937447   2639064.500
 -19.31250000   2639351.750
 -19.20562553   2639641.500
 -19.09874916   2639937.000
 -18.99187469   2640240.000
 -18.88500023   2640545.500
 -18.77812576   2640858.250
 -18.67124939   2641176.250
 -18.56437492   2641497.500
 -18.45750046   2641819.500
 -18.35062408   2642141.500
 -18.24374962   2642460.500
 -18.13687515   2642777.000
 -18.03000069   2643085.500
 -17.92312431   2643388.250
 -17.81624985   2643683.500
 -17.70937538   2643971.750
 -17.60250092   2644256.750
 -17.49562454   2644540.250
 -17.38875008   2644825.250
 -17.28187561   2645111.750
 -17.17499924   2645402.500
 -17.06812477   2645695.000
 -16.96125031   2645988.500
 -16.85437584   2646285.750
 -16.74749947   2646581.750
 -16.64062500   2646881.750
 -16.53375053   2647185.000
 -16.42687416   2647494.000
 -16.31999969   2647807.500
 -16.21312523   2648125.500
 -16.10625076   2648445.500
 -15.99937534   2648764.250
 -15.89249992   2649079.000
 -15.78562546   2649388.500
 -15.67875004   2649691.750
 -15.57187462   2649990.500
 -15.46500015   2650286.000
 -15.35812473   2650581.250
 -15.25125027   2650875.000
 -15.14437485   2651171.000
 -15.03750038   2651468.250
 -14.93062496   2651764.750
 -14.82374954   2652062.500
 -14.71687508   2652362.000
 -14.60999966   2652662.500
 -14.50312519   2652961.750
 -14.39624977   2653265.500
 -14.28937531   2653568.750
 -14.18249989   2653874.500
 -14.07562542   2654181.750
 -13.96875000   2654487.750
 -13.86187458   2654790.250
 -13.75500011   2655092.000
 -13.64812469   2655387.000
 -13.54125023   2655678.000
 -13.43437481   2655966.000
 -13.32750034   2656249.500
 -13.22062492   2656534.000
 -13.11375046   2656818.250
 -13.00687504   2657101.500
 -12.89999962   2657386.500
 -12.79312515   2657672.000
 -12.68624973   2657960.000
 -12.57937527   2658248.500
 -12.47249985   2658538.750
 -12.36562538   2658832.000
 -12.25874996   2659126.000
 -12.15187454   2659421.500
 -12.04500008   2659720.250
 -11.93812466   2660021.250
 -11.83125019   2660322.750
 -11.72437477   2660625.250
 -11.61750031   2660928.750
 -11.51062489   2661233.000
 -11.40375042   2661533.500
 -11.29687500   2661832.250
 -11.18999958   2662128.250
 -11.08312511   2662420.250
 -10.97624969   2662708.000
 -10.86937523   2662995.000
 -10.76249981   2663281.500
 -10.65562534   2663567.250
 -10.54874992   2663854.000
 -10.44187546   2664142.750
 -10.33500004   2664435.000
 -10.22812462   2664729.000
 -10.12125015   2665026.500
 -10.01437473   2665325.750
 -9.907500267   2665627.750
 -9.800624847   2665933.000
 -9.693750381   2666239.500
 -9.586874962   2666547.500
 -9.479999542   2666855.250
 -9.373125076   2667162.750
 -9.266249657   2667467.250
 -9.159375191   2667766.500
 -9.052499771   2668063.000
 -8.945625305   2668354.750
 -8.838749886   2668644.000
 -8.731875420   2668931.000
 -8.625000000   2669218.500
 -8.518124580   2669508.250
 -8.411250114   2669800.500
 -8.304374695   2670096.000
 -8.197500229   2670393.000
 -8.090624809   2670694.000
 -7.983749866   2670993.250
 -7.876874924   2671295.000
 -7.769999981   2671596.250
 -7.663125038   2671897.500
 -7.556250095   2672199.000
 -7.449375153   2672503.750
 -7.342500210   2672808.500
 -7.235624790   2673114.750
 -7.128749847   2673420.250
 -7.021874905   2673722.750
 -6.914999962   2674024.750
 -6.808125019   2674322.000
 -6.701250076   2674616.750
 -6.594375134   2674909.750
 -6.487500191   2675198.500
 -6.380624771   2675484.750
 -6.273749828   2675768.000
 -6.166874886   2676051.500
 -6.059999943   2676333.000
 -5.953125000   2676615.750
 -5.846250057   2676899.250
 -5.739375114   2677188.000
 -5.632500172   2677480.250
 -5.525625229   2677777.250
 -5.418749809   2678079.250
 -5.311874866   2678382.500
 -5.204999924   2678685.750
 -5.098124981   2678988.750
 -4.991250038   2679288.500
 -4.884375095   2679584.750
 -4.777500153   2679877.750
 -4.670625210   2680165.750
 -4.563749790   2680450.500
 -4.456874847   2680733.250
 -4.349999905   2681013.250
 -4.243124962   2681291.500
 -4.136250019   2681567.750
 -4.029375076   2681844.500
 -3.922499895   2682125.000
 -3.815624952   2682407.750
 -3.708750010   2682692.750
 -3.601875067   2682983.000
 -3.494999886   2683277.000
 -3.388124943   2683577.000
 -3.281250000   2683881.250
 -3.174375057   2684188.500
 -3.067500114   2684499.250
 -2.960624933   2684812.000
 -2.853749990   2685122.500
 -2.746875048   2685427.250
 -2.640000105   2685727.750
 -2.533124924   2686023.750
 -2.426249981   2686313.250
 -2.319375038   2686599.500
 -2.212500095   2686882.250
 -2.105624914   2687162.500
 -1.998749971   2687442.000
 -1.891875029   2687721.500
 -1.784999967   2688003.000
 -1.678125024   2688284.000
 -1.571249962   2688570.250
 -1.464375019   2688858.500
 -1.357499957   2689151.000
 -1.250625014   2689448.250
 -1.143749952   2689751.750
 -1.036875010   2690058.500
 -0.9300000072   2690369.250
 -0.8231250048   2690684.250
 -0.7162500024   2690996.500
 -0.6093750000   2691306.750
 -0.5024999976   2691616.750
 -0.3956249952   2691920.250
 -0.2887499928   2692222.250
 -0.1818750054   2692520.000
 -0.7500000298E-01   2692812.250
 0.3187499940E-01   2693101.250
 0.1387500018   2693388.000
 0.2456250042   2693668.750
 0.3524999917   2693947.250
 0.4593749940   2694224.750
 0.5662500262   2694501.750
 0.6731250286   2694783.000
 0.7799999714   2695071.500
 0.8868749738   2695365.500
 0.9937499762   2695665.500
 1.100625038   2695971.750
 1.207499981   2696280.250
 1.314375043   2696589.000
 1.421249986   2696896.250
 1.528125048   2697199.000
 1.634999990   2697498.750
 1.741875052   2697792.250
 1.848749995   2698083.000
 1.955625057   2698370.000
