 -30.00000000   -3592651.000
 -29.89312553   -3593045.750
 -29.78624916   -3593429.000
 -29.67937469   -3593805.250
 -29.57250023   -3594181.000
 -29.46562576   -3594565.500
 -29.35874939   -3594963.250
 -29.25187492   -3595369.500
 -29.14500046   -3595784.250
 -29.03812408   -3596194.250
 -28.93124962   -3596596.750
 -28.82437515   -3596985.000
 -28.71750069   -3597356.750
 -28.61062431   -3597716.250
 -28.50374985   -3598068.250
 -28.39687538   -3598423.750
 -28.29000092   -3598791.000
 -28.18312454   -3599174.500
 -28.07625008   -3599577.000
 -27.96937561   -3599993.250
 -27.86249924   -3600415.000
 -27.75562477   -3600832.750
 -27.64875031   -3601236.750
 -27.54187584   -3601623.000
 -27.43499947   -3601991.500
 -27.32812500   -3602349.000
 -27.22125053   -3602706.000
 -27.11437416   -3603073.000
 -27.00749969   -3603454.500
 -26.90062523   -3603855.500
 -26.79375076   -3604271.000
 -26.68687439   -3604694.000
 -26.57999992   -3605112.000
 -26.47312546   -3605515.500
 -26.36624908   -3605902.250
 -26.25937462   -3606271.750
 -26.15250015   -3606630.750
 -26.04562569   -3606991.500
 -25.93874931   -3607359.000
 -25.83187485   -3607744.500
 -25.72500038   -3608148.250
 -25.61812592   -3608565.750
 -25.51124954   -3608989.000
 -25.40437508   -3609406.500
 -25.29750061   -3609809.500
 -25.19062424   -3610196.000
 -25.08374977   -3610566.750
 -24.97687531   -3610927.750
 -24.87000084   -3611290.250
 -24.76312447   -3611662.000
 -24.65625000   -3612050.000
 -24.54937553   -3612455.500
 -24.44249916   -3612876.250
 -24.33562469   -3613305.750
 -24.22875023   -3613730.250
 -24.12187576   -3614145.750
 -24.01499939   -3614543.750
 -23.90812492   -3614925.750
 -23.80125046   -3615298.250
 -23.69437408   -3615666.250
 -23.58749962   -3616038.500
 -23.48062515   -3616421.250
 -23.37375069   -3616818.750
 -23.26687431   -3617228.250
 -23.15999985   -3617644.250
 -23.05312538   -3618061.000
 -22.94625092   -3618467.500
 -22.83937454   -3618862.500
 -22.73250008   -3619243.750
 -22.62562561   -3619613.250
 -22.51874924   -3619979.000
 -22.41187477   -3620347.750
 -22.30500031   -3620726.750
 -22.19812584   -3621119.750
 -22.09124947   -3621527.250
 -21.98437500   -3621944.250
 -21.87750053   -3622365.250
 -21.77062416   -3622781.500
 -21.66374969   -3623187.750
 -21.55687523   -3623581.250
 -21.45000076   -3623963.250
 -21.34312439   -3624338.750
 -21.23624992   -3624714.250
 -21.12937546   -3625097.500
 -21.02249908   -3625493.250
 -20.91562462   -3625900.000
 -20.80875015   -3626319.250
 -20.70187569   -3626742.250
 -20.59499931   -3627165.250
 -20.48812485   -3627581.500
 -20.38125038   -3627986.250
 -20.27437592   -3628384.250
 -20.16749954   -3628772.000
 -20.06062508   -3629157.750
 -19.95375061   -3629549.500
 -19.84687424   -3629948.750
 -19.73999977   -3630358.750
 -19.63312531   -3630781.000
 -19.52625084   -3631207.500
 -19.41937447   -3631636.750
 -19.31250000   -3632062.000
 -19.20562553   -3632479.000
 -19.09874916   -3632886.500
 -18.99187469   -3633286.250
 -18.88500023   -3633682.750
 -18.77812576   -3634080.250
 -18.67124939   -3634482.000
 -18.56437492   -3634894.000
 -18.45750046   -3635317.750
 -18.35062408   -3635747.750
 -18.24374962   -3636184.500
 -18.13687515   -3636614.750
 -18.03000069   -3637038.500
 -17.92312431   -3637451.250
 -17.81624985   -3637853.000
 -17.70937538   -3638248.250
 -17.60250092   -3638641.750
 -17.49562454   -3639038.250
 -17.38875008   -3639441.000
 -17.28187561   -3639855.500
 -17.17499924   -3640277.250
 -17.06812477   -3640703.000
 -16.96125031   -3641128.000
 -16.85437584   -3641544.500
 -16.74749947   -3641949.250
 -16.64062500   -3642343.000
 -16.53375053   -3642727.750
 -16.42687416   -3643108.250
 -16.31999969   -3643491.750
 -16.21312523   -3643880.000
 -16.10625076   -3644279.750
 -15.99937534   -3644689.500
 -15.89249992   -3645105.750
 -15.78562546   -3645524.250
 -15.67875004   -3645941.500
 -15.57187462   -3646352.750
 -15.46500015   -3646753.500
 -15.35812473   -3647143.750
 -15.25125027   -3647528.750
 -15.14437485   -3647910.750
 -15.03750038   -3648299.250
 -14.93062496   -3648695.000
 -14.82374954   -3649101.250
 -14.71687508   -3649516.500
 -14.60999966   -3649936.000
 -14.50312519   -3650353.250
 -14.39624977   -3650764.500
 -14.28937531   -3651163.750
 -14.18249989   -3651553.000
 -14.07562542   -3651934.250
 -13.96875000   -3652307.750
 -13.86187458   -3652684.250
 -13.75500011   -3653067.750
 -13.64812469   -3653460.750
 -13.54125023   -3653867.000
 -13.43437481   -3654281.500
 -13.32750034   -3654701.750
 -13.22062492   -3655119.500
 -13.11375046   -3655530.250
 -13.00687504   -3655928.250
 -12.89999962   -3656314.250
 -12.79312515   -3656688.250
 -12.68624973   -3657059.500
 -12.57937527   -3657437.500
 -12.47249985   -3657822.750
 -12.36562538   -3658223.750
 -12.25874996   -3658638.250
 -12.15187454   -3659061.500
 -12.04500008   -3659485.250
 -11.93812466   -3659903.750
 -11.83125019   -3660308.000
 -11.72437477   -3660696.750
 -11.61750031   -3661074.250
 -11.51062489   -3661445.250
 -11.40375042   -3661822.250
 -11.29687500   -3662210.000
 -11.18999958   -3662615.500
 -11.08312511   -3663039.750
 -10.97624969   -3663473.750
 -10.86937523   -3663910.000
 -10.76249981   -3664337.250
 -10.65562534   -3664752.250
 -10.54874992   -3665149.500
 -10.44187546   -3665532.000
 -10.33500004   -3665911.250
 -10.22812462   -3666294.500
 -10.12125015   -3666691.000
 -10.01437473   -3667107.500
 -9.907500267   -3667542.000
 -9.800624847   -3667988.500
 -9.693750381   -3668435.750
 -9.586874962   -3668876.000
 -9.479999542   -3669298.750
 -9.373125076   -3669705.000
 -9.266249657   -3670095.750
 -9.159375191   -3670479.750
 -9.052499771   -3670868.750
 -8.945625305   -3671268.750
 -8.838749886   -3671685.250
 -8.731875420   -3672115.250
 -8.625000000   -3672552.250
 -8.518124580   -3672990.500
 -8.411250114   -3673420.250
 -8.304374695   -3673838.000
 -8.197500229   -3674237.250
 -8.090624809   -3674623.750
 -7.983749866   -3675003.000
 -7.876874924   -3675381.750
 -7.769999981   -3675769.500
 -7.663125038   -3676169.750
 -7.556250095   -3676583.250
 -7.449375153   -3677006.250
 -7.342500210   -3677435.750
 -7.235624790   -3677860.750
 -7.128749847   -3678274.500
 -7.021874905   -3678677.750
 -6.914999962   -3679066.750
 -6.808125019   -3679448.250
 -6.701250076   -3679826.500
 -6.594375134   -3680214.000
 -6.487500191   -3680611.500
 -6.380624771   -3681026.500
 -6.273749828   -3681456.750
 -6.166874886   -3681897.250
 -6.059999943   -3682338.500
 -5.953125000   -3682771.750
 -5.846250057   -3683187.750
 -5.739375114   -3683585.000
 -5.632500172   -3683966.500
 -5.525625229   -3684338.750
 -5.418749809   -3684713.750
 -5.311874866   -3685098.500
 -5.204999924   -3685506.000
 -5.098124981   -3685928.250
 -4.991250038   -3686367.250
 -4.884375095   -3686811.250
 -4.777500153   -3687248.500
 -4.670625210   -3687671.000
 -4.563749790   -3688074.500
 -4.456874847   -3688463.000
 -4.349999905   -3688843.250
 -4.243124962   -3689227.500
 -4.136250019   -3689627.250
 -4.029375076   -3690048.500
 -3.922499895   -3690490.000
 -3.815624952   -3690946.500
 -3.708750010   -3691404.500
 -3.601875067   -3691854.500
 -3.494999886   -3692287.500
 -3.388124943   -3692697.250
 -3.281250000   -3693087.250
 -3.174375057   -3693467.250
 -3.067500114   -3693845.000
 -2.960624933   -3694235.000
 -2.853749990   -3694646.000
 -2.746875048   -3695074.250
 -2.640000105   -3695518.250
 -2.533124924   -3695969.000
 -2.426249981   -3696414.500
 -2.319375038   -3696844.000
 -2.212500095   -3697255.250
 -2.105624914   -3697646.750
 -1.998749971   -3698027.500
 -1.891875029   -3698408.000
 -1.784999967   -3698794.750
 -1.678125024   -3699198.750
 -1.571249962   -3699619.500
 -1.464375019   -3700056.500
 -1.357499957   -3700498.250
 -1.250625014   -3700935.250
 -1.143749952   -3701361.250
 -1.036875010   -3701767.250
 -0.9300000072   -3702156.500
 -0.8231250048   -3702535.000
 -0.7162500024   -3702911.500
 -0.6093750000   -3703296.500
 -0.5024999976   -3703698.750
 -0.3956249952   -3704119.750
 -0.2887499928   -3704558.250
 -0.1818750054   -3705005.250
 -0.7500000298E-01   -3705446.500
 0.3187499940E-01   -3705878.750
 0.1387500018   -3706294.250
 0.2456250042   -3706688.750
 0.3524999917   -3707071.500
 0.4593749940   -3707448.250
 0.5662500262   -3707830.250
 0.6731250286   -3708223.250
 0.7799999714   -3708635.000
 0.8868749738   -3709060.500
 0.9937499762   -3709498.000
 1.100625038   -3709934.250
 1.207499981   -3710362.000
 1.314375043   -3710775.750
 1.421249986   -3711170.750
 1.528125048   -3711554.000
 1.634999990   -3711928.750
 1.741875052   -3712308.000
 1.848749995   -3712697.750
 1.955625057   -3713105.500
