 -30.00000000   10103661.00
 -29.89312553   10104827.00
 -29.78624916   10105997.00
 -29.67937469   10107173.00
 -29.57250023   10108351.00
 -29.46562576   10109532.00
 -29.35874939   10110713.00
 -29.25187492   10111895.00
 -29.14500046   10113074.00
 -29.03812408   10114249.00
 -28.93124962   10115418.00
 -28.82437515   10116581.00
 -28.71750069   10117737.00
 -28.61062431   10118885.00
 -28.50374985   10120031.00
 -28.39687538   10121175.00
 -28.29000092   10122320.00
 -28.18312454   10123470.00
 -28.07625008   10124626.00
 -27.96937561   10125790.00
 -27.86249924   10126960.00
 -27.75562477   10128135.00
 -27.64875031   10129314.00
 -27.54187584   10130490.00
 -27.43499947   10131668.00
 -27.32812500   10132842.00
 -27.22125053   10134011.00
 -27.11437416   10135177.00
 -27.00749969   10136339.00
 -26.90062523   10137502.00
 -26.79375076   10138664.00
 -26.68687439   10139824.00
 -26.57999992   10140987.00
 -26.47312546   10142148.00
 -26.36624908   10143308.00
 -26.25937462   10144468.00
 -26.15250015   10145627.00
 -26.04562569   10146788.00
 -25.93874931   10147949.00
 -25.83187485   10149113.00
 -25.72500038   10150280.00
 -25.61812592   10151450.00
 -25.51124954   10152625.00
 -25.40437508   10153801.00
 -25.29750061   10154978.00
 -25.19062424   10156157.00
 -25.08374977   10157334.00
 -24.97687531   10158512.00
 -24.87000084   10159688.00
 -24.76312447   10160863.00
 -24.65625000   10162036.00
 -24.54937553   10163209.00
 -24.44249916   10164381.00
 -24.33562469   10165548.00
 -24.22875023   10166711.00
 -24.12187576   10167870.00
 -24.01499939   10169027.00
 -23.90812492   10170181.00
 -23.80125046   10171334.00
 -23.69437408   10172490.00
 -23.58749962   10173646.00
 -23.48062515   10174808.00
 -23.37375069   10175973.00
 -23.26687431   10177144.00
 -23.15999985   10178317.00
 -23.05312538   10179491.00
 -22.94625092   10180669.00
 -22.83937454   10181846.00
 -22.73250008   10183020.00
 -22.62562561   10184192.00
 -22.51874924   10185363.00
 -22.41187477   10186529.00
 -22.30500031   10187694.00
 -22.19812584   10188853.00
 -22.09124947   10190007.00
 -21.98437500   10191155.00
 -21.87750053   10192298.00
 -21.77062416   10193435.00
 -21.66374969   10194571.00
 -21.55687523   10195708.00
 -21.45000076   10196849.00
 -21.34312439   10197994.00
 -21.23624992   10199145.00
 -21.12937546   10200300.00
 -21.02249908   10201463.00
 -20.91562462   10202627.00
 -20.80875015   10203791.00
 -20.70187569   10204953.00
 -20.59499931   10206113.00
 -20.48812485   10207270.00
 -20.38125038   10208424.00
 -20.27437592   10209577.00
 -20.16749954   10210728.00
 -20.06062508   10211878.00
 -19.95375061   10213028.00
 -19.84687424   10214176.00
 -19.73999977   10215322.00
 -19.63312531   10216465.00
 -19.52625084   10217606.00
 -19.41937447   10218745.00
 -19.31250000   10219883.00
 -19.20562553   10221023.00
 -19.09874916   10222165.00
 -18.99187469   10223312.00
 -18.88500023   10224464.00
 -18.77812576   10225621.00
 -18.67124939   10226780.00
 -18.56437492   10227940.00
 -18.45750046   10229099.00
 -18.35062408   10230255.00
 -18.24374962   10231409.00
 -18.13687515   10232557.00
 -18.03000069   10233702.00
 -17.92312431   10234844.00
 -17.81624985   10235985.00
 -17.70937538   10237124.00
 -17.60250092   10238262.00
 -17.49562454   10239401.00
 -17.38875008   10240539.00
 -17.28187561   10241676.00
 -17.17499924   10242819.00
 -17.06812477   10243962.00
 -16.96125031   10245111.00
 -16.85437584   10246264.00
 -16.74749947   10247424.00
 -16.64062500   10248586.00
 -16.53375053   10249749.00
 -16.42687416   10250912.00
 -16.31999969   10252073.00
 -16.21312523   10253230.00
 -16.10625076   10254381.00
 -15.99937534   10255525.00
 -15.89249992   10256668.00
 -15.78562546   10257808.00
 -15.67875004   10258948.00
 -15.57187462   10260087.00
 -15.46500015   10261228.00
 -15.35812473   10262367.00
 -15.25125027   10263507.00
 -15.14437485   10264644.00
 -15.03750038   10265782.00
 -14.93062496   10266918.00
 -14.82374954   10268055.00
 -14.71687508   10269191.00
 -14.60999966   10270328.00
 -14.50312519   10271466.00
 -14.39624977   10272605.00
 -14.28937531   10273746.00
 -14.18249989   10274888.00
 -14.07562542   10276031.00
 -13.96875000   10277173.00
 -13.86187458   10278316.00
 -13.75500011   10279455.00
 -13.64812469   10280593.00
 -13.54125023   10281729.00
 -13.43437481   10282861.00
 -13.32750034   10283994.00
 -13.22062492   10285124.00
 -13.11375046   10286253.00
 -13.00687504   10287379.00
 -12.89999962   10288502.00
 -12.79312515   10289623.00
 -12.68624973   10290739.00
 -12.57937527   10291855.00
 -12.47249985   10292970.00
 -12.36562538   10294087.00
 -12.25874996   10295208.00
 -12.15187454   10296332.00
 -12.04500008   10297463.00
 -11.93812466   10298600.00
 -11.83125019   10299739.00
 -11.72437477   10300883.00
 -11.61750031   10302026.00
 -11.51062489   10303168.00
 -11.40375042   10304308.00
 -11.29687500   10305444.00
 -11.18999958   10306573.00
 -11.08312511   10307698.00
 -10.97624969   10308818.00
 -10.86937523   10309935.00
 -10.76249981   10311048.00
 -10.65562534   10312163.00
 -10.54874992   10313274.00
 -10.44187546   10314387.00
 -10.33500004   10315505.00
 -10.22812462   10316626.00
 -10.12125015   10317753.00
 -10.01437473   10318883.00
 -9.907500267   10320020.00
 -9.800624847   10321157.00
 -9.693750381   10322297.00
 -9.586874962   10323438.00
 -9.479999542   10324577.00
 -9.373125076   10325712.00
 -9.266249657   10326843.00
 -9.159375191   10327971.00
 -9.052499771   10329095.00
 -8.945625305   10330217.00
 -8.838749886   10331336.00
 -8.731875420   10332455.00
 -8.625000000   10333572.00
 -8.518124580   10334688.00
 -8.411250114   10335805.00
 -8.304374695   10336925.00
 -8.197500229   10338048.00
 -8.090624809   10339172.00
 -7.983749866   10340299.00
 -7.876874924   10341427.00
 -7.769999981   10342554.00
 -7.663125038   10343682.00
 -7.556250095   10344809.00
 -7.449375153   10345939.00
 -7.342500210   10347067.00
 -7.235624790   10348199.00
 -7.128749847   10349328.00
 -7.021874905   10350461.00
 -6.914999962   10351591.00
 -6.808125019   10352721.00
 -6.701250076   10353843.00
 -6.594375134   10354962.00
 -6.487500191   10356075.00
 -6.380624771   10357182.00
 -6.273749828   10358286.00
 -6.166874886   10359388.00
 -6.059999943   10360490.00
 -5.953125000   10361595.00
 -5.846250057   10362702.00
 -5.739375114   10363813.00
 -5.632500172   10364928.00
 -5.525625229   10366046.00
 -5.418749809   10367168.00
 -5.311874866   10368293.00
 -5.204999924   10369420.00
 -5.098124981   10370549.00
 -4.991250038   10371681.00
 -4.884375095   10372808.00
 -4.777500153   10373937.00
 -4.670625210   10375066.00
 -4.563749790   10376189.00
 -4.456874847   10377308.00
 -4.349999905   10378425.00
 -4.243124962   10379536.00
 -4.136250019   10380642.00
 -4.029375076   10381746.00
 -3.922499895   10382846.00
 -3.815624952   10383945.00
 -3.708750010   10385044.00
 -3.601875067   10386147.00
 -3.494999886   10387254.00
 -3.388124943   10388368.00
 -3.281250000   10389490.00
 -3.174375057   10390614.00
 -3.067500114   10391743.00
 -2.960624933   10392875.00
 -2.853749990   10394006.00
 -2.746875048   10395136.00
 -2.640000105   10396263.00
 -2.533124924   10397385.00
 -2.426249981   10398502.00
 -2.319375038   10399615.00
 -2.212500095   10400726.00
 -2.105624914   10401832.00
 -1.998749971   10402934.00
 -1.891875029   10404037.00
 -1.784999967   10405138.00
 -1.678125024   10406240.00
 -1.571249962   10407347.00
 -1.464375019   10408457.00
 -1.357499957   10409573.00
 -1.250625014   10410694.00
 -1.143749952   10411821.00
 -1.036875010   10412951.00
 -0.9300000072   10414082.00
 -0.8231250048   10415211.00
 -0.7162500024   10416341.00
 -0.6093750000   10417468.00
 -0.5024999976   10418590.00
 -0.3956249952   10419709.00
 -0.2887499928   10420825.00
 -0.1818750054   10421936.00
 -0.7500000298E-01   10423043.00
 0.3187499940E-01   10424147.00
 0.1387500018   10425246.00
 0.2456250042   10426346.00
 0.3524999917   10427444.00
 0.4593749940   10428542.00
 0.5662500262   10429644.00
 0.6731250286   10430749.00
 0.7799999714   10431855.00
 0.8868749738   10432964.00
 0.9937499762   10434078.00
 1.100625038   10435195.00
 1.207499981   10436313.00
 1.314375043   10437433.00
 1.421249986   10438553.00
 1.528125048   10439671.00
 1.634999990   10440787.00
 1.741875052   10441900.00
 1.848749995   10443008.00
 1.955625057   10444112.00
