 -30.00000000   -591969.0000
 -29.89312553   -592021.2500
 -29.78624916   -592055.3750
 -29.67937469   -592076.3750
 -29.57250023   -592087.7500
 -29.46562576   -592091.8125
 -29.35874939   -592092.0625
 -29.25187492   -592091.8750
 -29.14500046   -592093.3750
 -29.03812408   -592102.0000
 -28.93124962   -592116.8125
 -28.82437515   -592139.0000
 -28.71750069   -592170.6250
 -28.61062431   -592209.6875
 -28.50374985   -592256.3750
 -28.39687538   -592306.3125
 -28.29000092   -592358.1250
 -28.18312454   -592409.4375
 -28.07625008   -592454.8125
 -27.96937561   -592488.1875
 -27.86249924   -592505.3125
 -27.75562477   -592505.8750
 -27.64875031   -592483.4375
 -27.54187584   -592440.8125
 -27.43499947   -592374.8125
 -27.32812500   -592293.0000
 -27.22125053   -592197.9375
 -27.11437416   -592098.0000
 -27.00749969   -591999.9375
 -26.90062523   -591912.1875
 -26.79375076   -591843.2500
 -26.68687439   -591800.3750
 -26.57999992   -591785.3125
 -26.47312546   -591798.0000
 -26.36624908   -591838.4375
 -26.25937462   -591902.8125
 -26.15250015   -591981.3125
 -26.04562569   -592062.8750
 -25.93874931   -592144.7500
 -25.83187485   -592210.1875
 -25.72500038   -592258.6875
 -25.61812592   -592280.1250
 -25.51124954   -592273.3750
 -25.40437508   -592240.8125
 -25.29750061   -592183.4375
 -25.19062424   -592108.1250
 -25.08374977   -592022.5000
 -24.97687531   -591932.6875
 -24.87000084   -591847.7500
 -24.76312447   -591773.9375
 -24.65625000   -591717.0625
 -24.54937553   -591682.8125
 -24.44249916   -591671.7500
 -24.33562469   -591683.2500
 -24.22875023   -591716.5625
 -24.12187576   -591769.3125
 -24.01499939   -591833.2500
 -23.90812492   -591905.3125
 -23.80125046   -591977.4375
 -23.69437408   -592039.8125
 -23.58749962   -592086.5625
 -23.48062515   -592110.8125
 -23.37375069   -592108.8125
 -23.26687431   -592078.0000
 -23.15999985   -592015.6250
 -23.05312538   -591928.6250
 -22.94625092   -591818.6875
 -22.83937454   -591695.7500
 -22.73250008   -591567.3125
 -22.62562561   -591445.0000
 -22.51874924   -591338.0625
 -22.41187477   -591256.9375
 -22.30500031   -591209.1250
 -22.19812584   -591197.1250
 -22.09124947   -591220.0000
 -21.98437500   -591275.1250
 -21.87750053   -591356.1250
 -21.77062416   -591453.1875
 -21.66374969   -591552.6875
 -21.55687523   -591648.0000
 -21.45000076   -591726.1250
 -21.34312439   -591779.4375
 -21.23624992   -591802.3750
 -21.12937546   -591794.0000
 -21.02249908   -591754.5625
 -20.91562462   -591691.0000
 -20.80875015   -591608.6250
 -20.70187569   -591519.0000
 -20.59499931   -591428.9375
 -20.48812485   -591350.8125
 -20.38125038   -591290.6250
 -20.27437592   -591257.2500
 -20.16749954   -591252.6875
 -20.06062508   -591278.3750
 -19.95375061   -591332.5625
 -19.84687424   -591409.1250
 -19.73999977   -591505.9375
 -19.63312531   -591611.0000
 -19.52625084   -591720.2500
 -19.41937447   -591829.3125
 -19.31250000   -591932.1250
 -19.20562553   -592023.1875
 -19.09874916   -592102.7500
 -18.99187469   -592164.7500
 -18.88500023   -592211.1250
 -18.77812576   -592242.2500
 -18.67124939   -592256.3125
 -18.56437492   -592256.8750
 -18.45750046   -592247.0000
 -18.35062408   -592228.5000
 -18.24374962   -592205.6875
 -18.13687515   -592188.0625
 -18.03000069   -592178.8125
 -17.92312431   -592186.8125
 -17.81624985   -592214.8125
 -17.70937538   -592263.1875
 -17.60250092   -592333.4375
 -17.49562454   -592421.6250
 -17.38875008   -592524.6875
 -17.28187561   -592633.9375
 -17.17499924   -592744.9375
 -17.06812477   -592850.5000
 -16.96125031   -592945.8750
 -16.85437584   -593028.3125
 -16.74749947   -593091.8750
 -16.64062500   -593137.4375
 -16.53375053   -593166.1250
 -16.42687416   -593181.6875
 -16.31999969   -593183.8750
 -16.21312523   -593178.1875
 -16.10625076   -593171.0625
 -15.99937534   -593161.7500
 -15.89249992   -593158.1875
 -15.78562546   -593161.0625
 -15.67875004   -593171.0625
 -15.57187462   -593194.6250
 -15.46500015   -593227.9375
 -15.35812473   -593274.2500
 -15.25125027   -593332.4375
 -15.14437485   -593403.3750
 -15.03750038   -593486.5000
 -14.93062496   -593579.0625
 -14.82374954   -593680.1250
 -14.71687508   -593786.7500
 -14.60999966   -593891.6250
 -14.50312519   -593993.8125
 -14.39624977   -594082.1250
 -14.28937531   -594156.0625
 -14.18249989   -594210.0625
 -14.07562542   -594244.0000
 -13.96875000   -594256.5000
 -13.86187458   -594258.3125
 -13.75500011   -594250.1875
 -13.64812469   -594242.0625
 -13.54125023   -594241.0625
 -13.43437481   -594257.8750
 -13.32750034   -594297.5000
 -13.22062492   -594364.4375
 -13.11375046   -594461.0000
 -13.00687504   -594585.2500
 -12.89999962   -594730.1875
 -12.79312515   -594889.5000
 -12.68624973   -595052.5000
 -12.57937527   -595213.0625
 -12.47249985   -595358.0625
 -12.36562538   -595477.1875
 -12.25874996   -595567.8750
 -12.15187454   -595627.8125
 -12.04500008   -595654.1875
 -11.93812466   -595650.9375
 -11.83125019   -595625.0625
 -11.72437477   -595581.5625
 -11.61750031   -595530.0625
 -11.51062489   -595481.1250
 -11.40375042   -595439.0000
 -11.29687500   -595414.1875
 -11.18999958   -595413.9375
 -11.08312511   -595440.8750
 -10.97624969   -595497.4375
 -10.86937523   -595580.6250
 -10.76249981   -595687.6875
 -10.65562534   -595811.0625
 -10.54874992   -595943.3750
 -10.44187546   -596077.8125
 -10.33500004   -596207.0000
 -10.22812462   -596323.6875
 -10.12125015   -596422.6875
 -10.01437473   -596498.5625
 -9.907500267   -596551.0000
 -9.800624847   -596579.8125
 -9.693750381   -596587.3125
 -9.586874962   -596578.9375
 -9.479999542   -596559.6250
 -9.373125076   -596539.0625
 -9.266249657   -596522.3750
 -9.159375191   -596517.1250
 -9.052499771   -596529.2500
 -8.945625305   -596563.3125
 -8.838749886   -596620.1875
 -8.731875420   -596702.4375
 -8.625000000   -596806.0000
 -8.518124580   -596927.7500
 -8.411250114   -597062.6250
 -8.304374695   -597203.6250
 -8.197500229   -597341.8750
 -8.090624809   -597467.6875
 -7.983749866   -597575.5000
 -7.876874924   -597658.1875
 -7.769999981   -597713.2500
 -7.663125038   -597736.8750
 -7.556250095   -597736.5625
 -7.449375153   -597712.1250
 -7.342500210   -597671.5000
 -7.235624790   -597624.3125
 -7.128749847   -597576.8125
 -7.021874905   -597540.7500
 -6.914999962   -597522.2500
 -6.808125019   -597526.3750
 -6.701250076   -597553.6875
 -6.594375134   -597610.0000
 -6.487500191   -597689.5000
 -6.380624771   -597786.8750
 -6.273749828   -597900.5625
 -6.166874886   -598019.8125
 -6.059999943   -598137.6250
 -5.953125000   -598247.4375
 -5.846250057   -598343.0625
 -5.739375114   -598418.1250
 -5.632500172   -598471.8125
 -5.525625229   -598503.0625
 -5.418749809   -598513.1875
 -5.311874866   -598504.1250
 -5.204999924   -598480.4375
 -5.098124981   -598450.8750
 -4.991250038   -598415.6875
 -4.884375095   -598383.0625
 -4.777500153   -598359.5625
 -4.670625210   -598350.5625
 -4.563749790   -598360.3125
 -4.456874847   -598390.3125
 -4.349999905   -598447.5000
 -4.243124962   -598526.1250
 -4.136250019   -598630.5000
 -4.029375076   -598751.8750
 -3.922499895   -598886.2500
 -3.815624952   -599025.4375
 -3.708750010   -599163.4375
 -3.601875067   -599290.4375
 -3.494999886   -599402.1250
 -3.388124943   -599490.7500
 -3.281250000   -599554.1250
 -3.174375057   -599589.7500
 -3.067500114   -599599.6875
 -2.960624933   -599588.0000
 -2.853749990   -599563.1250
 -2.746875048   -599532.1875
 -2.640000105   -599504.5625
 -2.533124924   -599487.1250
 -2.426249981   -599487.1875
 -2.319375038   -599514.7500
 -2.212500095   -599566.5625
 -2.105624914   -599645.5625
 -1.998749971   -599750.1875
 -1.891875029   -599874.2500
 -1.784999967   -600012.0000
 -1.678125024   -600156.2500
 -1.571249962   -600297.5625
 -1.464375019   -600430.1875
 -1.357499957   -600545.0625
 -1.250625014   -600638.0000
 -1.143749952   -600705.4375
 -1.036875010   -600744.9375
 -0.9300000072   -600759.0000
 -0.8231250048   -600748.6875
 -0.7162500024   -600722.4375
 -0.6093750000   -600684.9375
 -0.5024999976   -600645.6250
 -0.3956249952   -600610.6250
 -0.2887499928   -600587.4375
 -0.1818750054   -600586.1250
 -0.7500000298E-01   -600609.5625
 0.3187499940E-01   -600659.5000
 0.1387500018   -600739.9375
 0.2456250042   -600845.1875
 0.3524999917   -600971.1875
 0.4593749940   -601111.7500
 0.5662500262   -601255.1875
 0.6731250286   -601396.3750
 0.7799999714   -601521.9375
 0.8868749738   -601625.8750
 0.9937499762   -601700.1250
 1.100625038   -601744.1250
 1.207499981   -601758.6250
 1.314375043   -601745.3125
 1.421249986   -601710.5000
 1.528125048   -601660.5000
 1.634999990   -601604.0625
 1.741875052   -601551.5625
 1.848749995   -601512.5625
 1.955625057   -601491.3125
