 -30.00000000   -4436402.000
 -29.89312553   -4436925.500
 -29.78624916   -4437464.000
 -29.67937469   -4438012.500
 -29.57250023   -4438572.500
 -29.46562576   -4439137.500
 -29.35874939   -4439706.000
 -29.25187492   -4440272.000
 -29.14500046   -4440833.500
 -29.03812408   -4441388.500
 -28.93124962   -4441933.000
 -28.82437515   -4442468.000
 -28.71750069   -4442991.500
 -28.61062431   -4443506.000
 -28.50374985   -4444012.500
 -28.39687538   -4444516.500
 -28.29000092   -4445021.500
 -28.18312454   -4445530.500
 -28.07625008   -4446045.500
 -27.96937561   -4446571.000
 -27.86249924   -4447107.500
 -27.75562477   -4447654.000
 -27.64875031   -4448208.000
 -27.54187584   -4448768.000
 -27.43499947   -4449331.000
 -27.32812500   -4449893.500
 -27.22125053   -4450454.500
 -27.11437416   -4451009.000
 -27.00749969   -4451555.000
 -26.90062523   -4452089.500
 -26.79375076   -4452608.500
 -26.68687439   -4453115.000
 -26.57999992   -4453605.500
 -26.47312546   -4454084.500
 -26.36624908   -4454554.500
 -26.25937462   -4455019.000
 -26.15250015   -4455484.500
 -26.04562569   -4455957.000
 -25.93874931   -4456441.000
 -25.83187485   -4456937.500
 -25.72500038   -4457454.000
 -25.61812592   -4457987.500
 -25.51124954   -4458533.500
 -25.40437508   -4459092.000
 -25.29750061   -4459658.000
 -25.19062424   -4460223.500
 -25.08374977   -4460784.500
 -24.97687531   -4461335.000
 -24.87000084   -4461874.500
 -24.76312447   -4462397.000
 -24.65625000   -4462907.500
 -24.54937553   -4463406.000
 -24.44249916   -4463897.500
 -24.33562469   -4464388.000
 -24.22875023   -4464880.000
 -24.12187576   -4465379.500
 -24.01499939   -4465887.500
 -23.90812492   -4466406.500
 -23.80125046   -4466931.500
 -23.69437408   -4467460.500
 -23.58749962   -4467988.000
 -23.48062515   -4468510.500
 -23.37375069   -4469028.000
 -23.26687431   -4469538.500
 -23.15999985   -4470044.000
 -23.05312538   -4470545.500
 -22.94625092   -4471044.000
 -22.83937454   -4471543.500
 -22.73250008   -4472039.000
 -22.62562561   -4472534.000
 -22.51874924   -4473025.000
 -22.41187477   -4473510.000
 -22.30500031   -4473990.500
 -22.19812584   -4474470.500
 -22.09124947   -4474948.000
 -21.98437500   -4475428.000
 -21.87750053   -4475911.500
 -21.77062416   -4476400.000
 -21.66374969   -4476893.500
 -21.55687523   -4477392.500
 -21.45000076   -4477895.000
 -21.34312439   -4478400.500
 -21.23624992   -4478910.000
 -21.12937546   -4479422.500
 -21.02249908   -4479937.000
 -20.91562462   -4480456.500
 -20.80875015   -4480978.500
 -20.70187569   -4481504.500
 -20.59499931   -4482034.000
 -20.48812485   -4482564.500
 -20.38125038   -4483097.000
 -20.27437592   -4483629.000
 -20.16749954   -4484162.500
 -20.06062508   -4484695.000
 -19.95375061   -4485224.000
 -19.84687424   -4485749.000
 -19.73999977   -4486266.000
 -19.63312531   -4486774.500
 -19.52625084   -4487272.000
 -19.41937447   -4487758.500
 -19.31250000   -4488236.000
 -19.20562553   -4488708.500
 -19.09874916   -4489179.000
 -18.99187469   -4489650.500
 -18.88500023   -4490133.000
 -18.77812576   -4490625.500
 -18.67124939   -4491134.000
 -18.56437492   -4491659.500
 -18.45750046   -4492199.000
 -18.35062408   -4492750.500
 -18.24374962   -4493308.000
 -18.13687515   -4493869.000
 -18.03000069   -4494426.000
 -17.92312431   -4494972.000
 -17.81624985   -4495502.500
 -17.70937538   -4496014.000
 -17.60250092   -4496505.000
 -17.49562454   -4496979.500
 -17.38875008   -4497439.500
 -17.28187561   -4497893.500
 -17.17499924   -4498347.500
 -17.06812477   -4498811.000
 -16.96125031   -4499286.000
 -16.85437584   -4499779.500
 -16.74749947   -4500292.000
 -16.64062500   -4500821.500
 -16.53375053   -4501360.500
 -16.42687416   -4501905.000
 -16.31999969   -4502445.000
 -16.21312523   -4502981.000
 -16.10625076   -4503504.000
 -15.99937534   -4504012.500
 -15.89249992   -4504506.000
 -15.78562546   -4504984.500
 -15.67875004   -4505452.500
 -15.57187462   -4505912.000
 -15.46500015   -4506367.500
 -15.35812473   -4506825.500
 -15.25125027   -4507288.500
 -15.14437485   -4507759.000
 -15.03750038   -4508240.000
 -14.93062496   -4508733.000
 -14.82374954   -4509237.000
 -14.71687508   -4509745.500
 -14.60999966   -4510258.500
 -14.50312519   -4510770.000
 -14.39624977   -4511278.500
 -14.28937531   -4511782.000
 -14.18249989   -4512278.000
 -14.07562542   -4512768.000
 -13.96875000   -4513253.500
 -13.86187458   -4513736.500
 -13.75500011   -4514223.000
 -13.64812469   -4514711.500
 -13.54125023   -4515203.000
 -13.43437481   -4515699.000
 -13.32750034   -4516198.000
 -13.22062492   -4516698.500
 -13.11375046   -4517199.000
 -13.00687504   -4517701.000
 -12.89999962   -4518201.500
 -12.79312515   -4518701.500
 -12.68624973   -4519203.000
 -12.57937527   -4519705.000
 -12.47249985   -4520210.000
 -12.36562538   -4520718.500
 -12.25874996   -4521228.000
 -12.15187454   -4521740.500
 -12.04500008   -4522256.000
 -11.93812466   -4522774.000
 -11.83125019   -4523293.500
 -11.72437477   -4523813.000
 -11.61750031   -4524332.500
 -11.51062489   -4524849.500
 -11.40375042   -4525365.000
 -11.29687500   -4525876.500
 -11.18999958   -4526387.500
 -11.08312511   -4526894.500
 -10.97624969   -4527402.000
 -10.86937523   -4527911.500
 -10.76249981   -4528419.500
 -10.65562534   -4528930.000
 -10.54874992   -4529441.500
 -10.44187546   -4529950.500
 -10.33500004   -4530459.000
 -10.22812462   -4530964.000
 -10.12125015   -4531465.500
 -10.01437473   -4531962.500
 -9.907500267   -4532456.500
 -9.800624847   -4532951.000
 -9.693750381   -4533445.500
 -9.586874962   -4533939.500
 -9.479999542   -4534433.500
 -9.373125076   -4534926.000
 -9.266249657   -4535416.000
 -9.159375191   -4535904.000
 -9.052499771   -4536392.000
 -8.945625305   -4536880.000
 -8.838749886   -4537370.500
 -8.731875420   -4537864.500
 -8.625000000   -4538360.000
 -8.518124580   -4538858.000
 -8.411250114   -4539358.000
 -8.304374695   -4539857.000
 -8.197500229   -4540357.500
 -8.090624809   -4540852.500
 -7.983749866   -4541345.500
 -7.876874924   -4541840.000
 -7.769999981   -4542333.500
 -7.663125038   -4542830.000
 -7.556250095   -4543329.000
 -7.449375153   -4543836.500
 -7.342500210   -4544348.000
 -7.235624790   -4544865.000
 -7.128749847   -4545383.500
 -7.021874905   -4545906.000
 -6.914999962   -4546428.000
 -6.808125019   -4546949.500
 -6.701250076   -4547468.000
 -6.594375134   -4547982.500
 -6.487500191   -4548493.500
 -6.380624771   -4549000.000
 -6.273749828   -4549497.500
 -6.166874886   -4549992.000
 -6.059999943   -4550481.000
 -5.953125000   -4550969.500
 -5.846250057   -4551455.000
 -5.739375114   -4551941.500
 -5.632500172   -4552430.500
 -5.525625229   -4552921.500
 -5.418749809   -4553414.000
 -5.311874866   -4553906.000
 -5.204999924   -4554398.500
 -5.098124981   -4554889.500
 -4.991250038   -4555381.500
 -4.884375095   -4555873.000
 -4.777500153   -4556367.500
 -4.670625210   -4556862.000
 -4.563749790   -4557353.500
 -4.456874847   -4557844.500
 -4.349999905   -4558329.500
 -4.243124962   -4558810.000
 -4.136250019   -4559283.500
 -4.029375076   -4559751.000
 -3.922499895   -4560221.000
 -3.815624952   -4560692.000
 -3.708750010   -4561171.500
 -3.601875067   -4561660.000
 -3.494999886   -4562157.000
 -3.388124943   -4562661.500
 -3.281250000   -4563170.500
 -3.174375057   -4563682.000
 -3.067500114   -4564193.500
 -2.960624933   -4564702.000
 -2.853749990   -4565207.000
 -2.746875048   -4565710.000
 -2.640000105   -4566210.500
 -2.533124924   -4566708.500
 -2.426249981   -4567205.500
 -2.319375038   -4567702.000
 -2.212500095   -4568195.000
 -2.105624914   -4568686.000
 -1.998749971   -4569174.500
 -1.891875029   -4569661.000
 -1.784999967   -4570147.500
 -1.678125024   -4570638.000
 -1.571249962   -4571129.000
 -1.464375019   -4571624.500
 -1.357499957   -4572121.000
 -1.250625014   -4572618.500
 -1.143749952   -4573117.000
 -1.036875010   -4573616.000
 -0.9300000072   -4574115.000
 -0.8231250048   -4574618.500
 -0.7162500024   -4575123.500
 -0.6093750000   -4575634.000
 -0.5024999976   -4576146.000
 -0.3956249952   -4576659.000
 -0.2887499928   -4577169.500
 -0.1818750054   -4577677.000
 -0.7500000298E-01   -4578180.000
 0.3187499940E-01   -4578674.000
 0.1387500018   -4579161.000
 0.2456250042   -4579642.500
 0.3524999917   -4580118.500
 0.4593749940   -4580594.500
 0.5662500262   -4581074.500
 0.6731250286   -4581557.500
 0.7799999714   -4582046.500
 0.8868749738   -4582543.000
 0.9937499762   -4583046.500
 1.100625038   -4583556.500
 1.207499981   -4584075.000
 1.314375043   -4584599.000
 1.421249986   -4585127.500
 1.528125048   -4585655.500
 1.634999990   -4586183.500
 1.741875052   -4586707.500
 1.848749995   -4587223.000
 1.955625057   -4587733.500
