 -30.00000000   10087854.00
 -29.89312553   10089010.00
 -29.78624916   10090159.00
 -29.67937469   10091306.00
 -29.57250023   10092455.00
 -29.46562576   10093604.00
 -29.35874939   10094757.00
 -29.25187492   10095915.00
 -29.14500046   10097073.00
 -29.03812408   10098233.00
 -28.93124962   10099389.00
 -28.82437515   10100541.00
 -28.71750069   10101688.00
 -28.61062431   10102831.00
 -28.50374985   10103973.00
 -28.39687538   10105119.00
 -28.29000092   10106267.00
 -28.18312454   10107423.00
 -28.07625008   10108583.00
 -27.96937561   10109748.00
 -27.86249924   10110911.00
 -27.75562477   10112072.00
 -27.64875031   10113228.00
 -27.54187584   10114379.00
 -27.43499947   10115527.00
 -27.32812500   10116673.00
 -27.22125053   10117825.00
 -27.11437416   10118982.00
 -27.00749969   10120150.00
 -26.90062523   10121322.00
 -26.79375076   10122504.00
 -26.68687439   10123687.00
 -26.57999992   10124871.00
 -26.47312546   10126050.00
 -26.36624908   10127224.00
 -26.25937462   10128389.00
 -26.15250015   10129550.00
 -26.04562569   10130707.00
 -25.93874931   10131861.00
 -25.83187485   10133018.00
 -25.72500038   10134176.00
 -25.61812592   10135336.00
 -25.51124954   10136497.00
 -25.40437508   10137659.00
 -25.29750061   10138819.00
 -25.19062424   10139979.00
 -25.08374977   10141138.00
 -24.97687531   10142295.00
 -24.87000084   10143451.00
 -24.76312447   10144607.00
 -24.65625000   10145765.00
 -24.54937553   10146925.00
 -24.44249916   10148088.00
 -24.33562469   10149252.00
 -24.22875023   10150418.00
 -24.12187576   10151580.00
 -24.01499939   10152739.00
 -23.90812492   10153895.00
 -23.80125046   10155045.00
 -23.69437408   10156191.00
 -23.58749962   10157339.00
 -23.48062515   10158490.00
 -23.37375069   10159647.00
 -23.26687431   10160811.00
 -23.15999985   10161983.00
 -23.05312538   10163160.00
 -22.94625092   10164340.00
 -22.83937454   10165518.00
 -22.73250008   10166688.00
 -22.62562561   10167852.00
 -22.51874924   10169012.00
 -22.41187477   10170171.00
 -22.30500031   10171331.00
 -22.19812584   10172498.00
 -22.09124947   10173672.00
 -21.98437500   10174853.00
 -21.87750053   10176041.00
 -21.77062416   10177226.00
 -21.66374969   10178406.00
 -21.55687523   10179577.00
 -21.45000076   10180737.00
 -21.34312439   10181890.00
 -21.23624992   10183040.00
 -21.12937546   10184189.00
 -21.02249908   10185345.00
 -20.91562462   10186509.00
 -20.80875015   10187679.00
 -20.70187569   10188854.00
 -20.59499931   10190030.00
 -20.48812485   10191202.00
 -20.38125038   10192368.00
 -20.27437592   10193528.00
 -20.16749954   10194682.00
 -20.06062508   10195835.00
 -19.95375061   10196990.00
 -19.84687424   10198148.00
 -19.73999977   10199313.00
 -19.63312531   10200486.00
 -19.52625084   10201661.00
 -19.41937447   10202835.00
 -19.31250000   10204005.00
 -19.20562553   10205167.00
 -19.09874916   10206321.00
 -18.99187469   10207470.00
 -18.88500023   10208615.00
 -18.77812576   10209763.00
 -18.67124939   10210919.00
 -18.56437492   10212082.00
 -18.45750046   10213253.00
 -18.35062408   10214430.00
 -18.24374962   10215606.00
 -18.13687515   10216775.00
 -18.03000069   10217937.00
 -17.92312431   10219090.00
 -17.81624985   10220235.00
 -17.70937538   10221378.00
 -17.60250092   10222526.00
 -17.49562454   10223681.00
 -17.38875008   10224850.00
 -17.28187561   10226029.00
 -17.17499924   10227213.00
 -17.06812477   10228397.00
 -16.96125031   10229572.00
 -16.85437584   10230736.00
 -16.74749947   10231889.00
 -16.64062500   10233032.00
 -16.53375053   10234177.00
 -16.42687416   10235327.00
 -16.31999969   10236490.00
 -16.21312523   10237665.00
 -16.10625076   10238853.00
 -15.99937534   10240046.00
 -15.89249992   10241239.00
 -15.78562546   10242422.00
 -15.67875004   10243593.00
 -15.57187462   10244757.00
 -15.46500015   10245915.00
 -15.35812473   10247078.00
 -15.25125027   10248248.00
 -15.14437485   10249432.00
 -15.03750038   10250630.00
 -14.93062496   10251834.00
 -14.82374954   10253042.00
 -14.71687508   10254242.00
 -14.60999966   10255435.00
 -14.50312519   10256615.00
 -14.39624977   10257784.00
 -14.28937531   10258947.00
 -14.18249989   10260107.00
 -14.07562542   10261272.00
 -13.96875000   10262443.00
 -13.86187458   10263621.00
 -13.75500011   10264802.00
 -13.64812469   10265983.00
 -13.54125023   10267160.00
 -13.43437481   10268327.00
 -13.32750034   10269483.00
 -13.22062492   10270630.00
 -13.11375046   10271773.00
 -13.00687504   10272914.00
 -12.89999962   10274060.00
 -12.79312515   10275211.00
 -12.68624973   10276373.00
 -12.57937527   10277540.00
 -12.47249985   10278709.00
 -12.36562538   10279875.00
 -12.25874996   10281035.00
 -12.15187454   10282184.00
 -12.04500008   10283323.00
 -11.93812466   10284454.00
 -11.83125019   10285585.00
 -11.72437477   10286719.00
 -11.61750031   10287865.00
 -11.51062489   10289023.00
 -11.40375042   10290194.00
 -11.29687500   10291374.00
 -11.18999958   10292558.00
 -11.08312511   10293740.00
 -10.97624969   10294913.00
 -10.86937523   10296078.00
 -10.76249981   10297236.00
 -10.65562534   10298392.00
 -10.54874992   10299551.00
 -10.44187546   10300718.00
 -10.33500004   10301894.00
 -10.22812462   10303078.00
 -10.12125015   10304266.00
 -10.01437473   10305451.00
 -9.907500267   10306629.00
 -9.800624847   10307797.00
 -9.693750381   10308952.00
 -9.586874962   10310102.00
 -9.479999542   10311249.00
 -9.373125076   10312404.00
 -9.266249657   10313572.00
 -9.159375191   10314756.00
 -9.052499771   10315954.00
 -8.945625305   10317162.00
 -8.838749886   10318372.00
 -8.731875420   10319579.00
 -8.625000000   10320775.00
 -8.518124580   10321960.00
 -8.411250114   10323136.00
 -8.304374695   10324307.00
 -8.197500229   10325477.00
 -8.090624809   10326652.00
 -7.983749866   10327837.00
 -7.876874924   10329030.00
 -7.769999981   10330228.00
 -7.663125038   10331426.00
 -7.556250095   10332617.00
 -7.449375153   10333801.00
 -7.342500210   10334974.00
 -7.235624790   10336134.00
 -7.128749847   10337286.00
 -7.021874905   10338436.00
 -6.914999962   10339589.00
 -6.808125019   10340748.00
 -6.701250076   10341911.00
 -6.594375134   10343081.00
 -6.487500191   10344252.00
 -6.380624771   10345421.00
 -6.273749828   10346581.00
 -6.166874886   10347734.00
 -6.059999943   10348875.00
 -5.953125000   10350009.00
 -5.846250057   10351143.00
 -5.739375114   10352280.00
 -5.632500172   10353428.00
 -5.525625229   10354589.00
 -5.418749809   10355763.00
 -5.311874866   10356947.00
 -5.204999924   10358136.00
 -5.098124981   10359322.00
 -4.991250038   10360505.00
 -4.884375095   10361677.00
 -4.777500153   10362843.00
 -4.670625210   10364006.00
 -4.563749790   10365169.00
 -4.456874847   10366338.00
 -4.349999905   10367515.00
 -4.243124962   10368700.00
 -4.136250019   10369891.00
 -4.029375076   10371081.00
 -3.922499895   10372267.00
 -3.815624952   10373443.00
 -3.708750010   10374607.00
 -3.601875067   10375764.00
 -3.494999886   10376917.00
 -3.388124943   10378072.00
 -3.281250000   10379232.00
 -3.174375057   10380402.00
 -3.067500114   10381579.00
 -2.960624933   10382761.00
 -2.853749990   10383942.00
 -2.746875048   10385120.00
 -2.640000105   10386289.00
 -2.533124924   10387450.00
 -2.426249981   10388602.00
 -2.319375038   10389749.00
 -2.212500095   10390897.00
 -2.105624914   10392050.00
 -1.998749971   10393211.00
 -1.891875029   10394381.00
 -1.784999967   10395557.00
 -1.678125024   10396737.00
 -1.571249962   10397917.00
 -1.464375019   10399093.00
 -1.357499957   10400265.00
 -1.250625014   10401429.00
 -1.143749952   10402589.00
 -1.036875010   10403749.00
 -0.9300000072   10404909.00
 -0.8231250048   10406076.00
 -0.7162500024   10407249.00
 -0.6093750000   10408427.00
 -0.5024999976   10409611.00
 -0.3956249952   10410796.00
 -0.2887499928   10411982.00
 -0.1818750054   10413159.00
 -0.7500000298E-01   10414335.00
 0.3187499940E-01   10415507.00
 0.1387500018   10416676.00
 0.2456250042   10417846.00
 0.3524999917   10419020.00
 0.4593749940   10420200.00
 0.5662500262   10421387.00
 0.6731250286   10422577.00
 0.7799999714   10423767.00
 0.8868749738   10424956.00
 0.9937499762   10426137.00
 1.100625038   10427313.00
 1.207499981   10428480.00
 1.314375043   10429643.00
 1.421249986   10430805.00
 1.528125048   10431971.00
 1.634999990   10433140.00
 1.741875052   10434318.00
 1.848749995   10435500.00
 1.955625057   10436687.00
