 -30.00000000   8252721.000
 -29.89312553   8253662.500
 -29.78624916   8254601.500
 -29.67937469   8255533.500
 -29.57250023   8256462.000
 -29.46562576   8257389.500
 -29.35874939   8258317.000
 -29.25187492   8259243.500
 -29.14500046   8260174.500
 -29.03812408   8261107.000
 -28.93124962   8262043.000
 -28.82437515   8262981.500
 -28.71750069   8263922.500
 -28.61062431   8264868.000
 -28.50374985   8265811.500
 -28.39687538   8266757.500
 -28.29000092   8267701.000
 -28.18312454   8268643.500
 -28.07625008   8269582.000
 -27.96937561   8270518.500
 -27.86249924   8271452.000
 -27.75562477   8272380.000
 -27.64875031   8273308.000
 -27.54187584   8274231.000
 -27.43499947   8275154.500
 -27.32812500   8276076.500
 -27.22125053   8276998.500
 -27.11437416   8277921.500
 -27.00749969   8278844.000
 -26.90062523   8279770.000
 -26.79375076   8280695.500
 -26.68687439   8281626.000
 -26.57999992   8282559.500
 -26.47312546   8283493.500
 -26.36624908   8284429.500
 -26.25937462   8285366.500
 -26.15250015   8286304.500
 -26.04562569   8287242.500
 -25.93874931   8288179.000
 -25.83187485   8289114.000
 -25.72500038   8290045.500
 -25.61812592   8290975.500
 -25.51124954   8291902.500
 -25.40437508   8292827.000
 -25.29750061   8293747.500
 -25.19062424   8294666.500
 -25.08374977   8295584.000
 -24.97687531   8296500.500
 -24.87000084   8297418.000
 -24.76312447   8298335.500
 -24.65625000   8299255.000
 -24.54937553   8300178.000
 -24.44249916   8301103.000
 -24.33562469   8302029.000
 -24.22875023   8302959.000
 -24.12187576   8303890.500
 -24.01499939   8304824.500
 -23.90812492   8305758.500
 -23.80125046   8306693.000
 -23.69437408   8307624.500
 -23.58749962   8308554.000
 -23.48062515   8309481.500
 -23.37375069   8310403.500
 -23.26687431   8311322.500
 -23.15999985   8312235.500
 -23.05312538   8313146.000
 -22.94625092   8314053.500
 -22.83937454   8314960.500
 -22.73250008   8315869.000
 -22.62562561   8316777.000
 -22.51874924   8317689.500
 -22.41187477   8318605.000
 -22.30500031   8319525.000
 -22.19812584   8320447.500
 -22.09124947   8321373.500
 -21.98437500   8322304.000
 -21.87750053   8323236.500
 -21.77062416   8324171.500
 -21.66374969   8325105.500
 -21.55687523   8326040.000
 -21.45000076   8326971.000
 -21.34312439   8327898.500
 -21.23624992   8328823.500
 -21.12937546   8329744.500
 -21.02249908   8330659.500
 -20.91562462   8331571.000
 -20.80875015   8332481.000
 -20.70187569   8333389.500
 -20.59499931   8334297.000
 -20.48812485   8335206.000
 -20.38125038   8336119.000
 -20.27437592   8337035.000
 -20.16749954   8337953.000
 -20.06062508   8338876.000
 -19.95375061   8339803.000
 -19.84687424   8340733.000
 -19.73999977   8341664.000
 -19.63312531   8342598.000
 -19.52625084   8343533.500
 -19.41937447   8344468.000
 -19.31250000   8345401.500
 -19.20562553   8346333.000
 -19.09874916   8347262.000
 -18.99187469   8348187.000
 -18.88500023   8349109.000
 -18.77812576   8350027.500
 -18.67124939   8350941.500
 -18.56437492   8351856.000
 -18.45750046   8352768.500
 -18.35062408   8353679.500
 -18.24374962   8354595.000
 -18.13687515   8355511.000
 -18.03000069   8356429.000
 -17.92312431   8357351.500
 -17.81624985   8358278.500
 -17.70937538   8359208.000
 -17.60250092   8360140.500
 -17.49562454   8361074.500
 -17.38875008   8362009.500
 -17.28187561   8362947.500
 -17.17499924   8363884.000
 -17.06812477   8364818.000
 -16.96125031   8365750.000
 -16.85437584   8366679.000
 -16.74749947   8367602.500
 -16.64062500   8368522.000
 -16.53375053   8369438.000
 -16.42687416   8370349.500
 -16.31999969   8371256.500
 -16.21312523   8372164.000
 -16.10625076   8373067.000
 -15.99937534   8373972.500
 -15.89249992   8374880.000
 -15.78562546   8375790.500
 -15.67875004   8376707.000
 -15.57187462   8377629.000
 -15.46500015   8378555.000
 -15.35812473   8379488.500
 -15.25125027   8380425.000
 -15.14437485   8381363.500
 -15.03750038   8382304.500
 -14.93062496   8383246.500
 -14.82374954   8384184.500
 -14.71687508   8385120.000
 -14.60999966   8386050.500
 -14.50312519   8386975.500
 -14.39624977   8387894.500
 -14.28937531   8388809.000
 -14.18249989   8389718.000
 -14.07562542   8390626.000
 -13.96875000   8391533.000
 -13.86187458   8392444.000
 -13.75500011   8393358.000
 -13.64812469   8394276.000
 -13.54125023   8395201.000
 -13.43437481   8396129.000
 -13.32750034   8397061.000
 -13.22062492   8397994.000
 -13.11375046   8398930.000
 -13.00687504   8399865.000
 -12.89999962   8400799.000
 -12.79312515   8401731.000
 -12.68624973   8402659.000
 -12.57937527   8403584.000
 -12.47249985   8404506.000
 -12.36562538   8405425.000
 -12.25874996   8406340.000
 -12.15187454   8407252.000
 -12.04500008   8408163.000
 -11.93812466   8409071.000
 -11.83125019   8409978.000
 -11.72437477   8410883.000
 -11.61750031   8411791.000
 -11.51062489   8412698.000
 -11.40375042   8413607.000
 -11.29687500   8414520.000
 -11.18999958   8415433.000
 -11.08312511   8416348.000
 -10.97624969   8417267.000
 -10.86937523   8418186.000
 -10.76249981   8419107.000
 -10.65562534   8420030.000
 -10.54874992   8420950.000
 -10.44187546   8421874.000
 -10.33500004   8422793.000
 -10.22812462   8423712.000
 -10.12125015   8424628.000
 -10.01437473   8425542.000
 -9.907500267   8426452.000
 -9.800624847   8427357.000
 -9.693750381   8428261.000
 -9.586874962   8429163.000
 -9.479999542   8430066.000
 -9.373125076   8430968.000
 -9.266249657   8431872.000
 -9.159375191   8432779.000
 -9.052499771   8433689.000
 -8.945625305   8434605.000
 -8.838749886   8435525.000
 -8.731875420   8436450.000
 -8.625000000   8437378.000
 -8.518124580   8438311.000
 -8.411250114   8439243.000
 -8.304374695   8440174.000
 -8.197500229   8441102.000
 -8.090624809   8442026.000
 -7.983749866   8442943.000
 -7.876874924   8443855.000
 -7.769999981   8444760.000
 -7.663125038   8445661.000
 -7.556250095   8446555.000
 -7.449375153   8447449.000
 -7.342500210   8448345.000
 -7.235624790   8449241.000
 -7.128749847   8450141.000
 -7.021874905   8451044.000
 -6.914999962   8451951.000
 -6.808125019   8452860.000
 -6.701250076   8453773.000
 -6.594375134   8454689.000
 -6.487500191   8455607.000
 -6.380624771   8456526.000
 -6.273749828   8457445.000
 -6.166874886   8458366.000
 -6.059999943   8459280.000
 -5.953125000   8460195.000
 -5.846250057   8461104.000
 -5.739375114   8462008.000
 -5.632500172   8462906.000
 -5.525625229   8463802.000
 -5.418749809   8464696.000
 -5.311874866   8465589.000
 -5.204999924   8466482.000
 -5.098124981   8467378.000
 -4.991250038   8468277.000
 -4.884375095   8469177.000
 -4.777500153   8470082.000
 -4.670625210   8470989.000
 -4.563749790   8471898.000
 -4.456874847   8472813.000
 -4.349999905   8473728.000
 -4.243124962   8474647.000
 -4.136250019   8475567.000
 -4.029375076   8476489.000
 -3.922499895   8477409.000
 -3.815624952   8478329.000
 -3.708750010   8479243.000
 -3.601875067   8480152.000
 -3.494999886   8481054.000
 -3.388124943   8481951.000
 -3.281250000   8482841.000
 -3.174375057   8483729.000
 -3.067500114   8484614.000
 -2.960624933   8485501.000
 -2.853749990   8486389.000
 -2.746875048   8487285.000
 -2.640000105   8488182.000
 -2.533124924   8489085.000
 -2.426249981   8489992.000
 -2.319375038   8490904.000
 -2.212500095   8491817.000
 -2.105624914   8492733.000
 -1.998749971   8493648.000
 -1.891875029   8494564.000
 -1.784999967   8495477.000
 -1.678125024   8496390.000
 -1.571249962   8497300.000
 -1.464375019   8498209.000
 -1.357499957   8499114.000
 -1.250625014   8500014.000
 -1.143749952   8500914.000
 -1.036875010   8501811.000
 -0.9300000072   8502701.000
 -0.8231250048   8503590.000
 -0.7162500024   8504481.000
 -0.6093750000   8505370.000
 -0.5024999976   8506261.000
 -0.3956249952   8507157.000
 -0.2887499928   8508058.000
 -0.1818750054   8508964.000
 -0.7500000298E-01   8509874.000
 0.3187499940E-01   8510789.000
 0.1387500018   8511706.000
 0.2456250042   8512623.000
 0.3524999917   8513540.000
 0.4593749940   8514456.000
 0.5662500262   8515367.000
 0.6731250286   8516275.000
 0.7799999714   8517176.000
 0.8868749738   8518071.000
 0.9937499762   8518959.000
 1.100625038   8519842.000
 1.207499981   8520721.000
 1.314375043   8521596.000
 1.421249986   8522471.000
 1.528125048   8523349.000
 1.634999990   8524231.000
 1.741875052   8525118.000
 1.848749995   8526013.000
 1.955625057   8526915.000
