 -30.00000000   7307742.500
 -29.89312553   7308588.500
 -29.78624916   7309440.000
 -29.67937469   7310293.000
 -29.57250023   7311146.500
 -29.46562576   7311998.000
 -29.35874939   7312845.500
 -29.25187492   7313689.500
 -29.14500046   7314531.000
 -29.03812408   7315374.000
 -28.93124962   7316220.000
 -28.82437515   7317071.500
 -28.71750069   7317925.500
 -28.61062431   7318785.500
 -28.50374985   7319646.000
 -28.39687538   7320504.000
 -28.29000092   7321358.500
 -28.18312454   7322207.500
 -28.07625008   7323050.500
 -27.96937561   7323890.500
 -27.86249924   7324730.000
 -27.75562477   7325573.000
 -27.64875031   7326419.500
 -27.54187584   7327274.000
 -27.43499947   7328131.500
 -27.32812500   7328990.500
 -27.22125053   7329849.000
 -27.11437416   7330704.000
 -27.00749969   7331554.500
 -26.90062523   7332400.500
 -26.79375076   7333244.500
 -26.68687439   7334087.500
 -26.57999992   7334932.000
 -26.47312546   7335781.000
 -26.36624908   7336635.000
 -26.25937462   7337489.000
 -26.15250015   7338348.000
 -26.04562569   7339204.000
 -25.93874931   7340057.000
 -25.83187485   7340907.000
 -25.72500038   7341751.500
 -25.61812592   7342593.500
 -25.51124954   7343437.500
 -25.40437508   7344281.000
 -25.29750061   7345130.500
 -25.19062424   7345981.500
 -25.08374977   7346836.000
 -24.97687531   7347692.000
 -24.87000084   7348548.000
 -24.76312447   7349401.000
 -24.65625000   7350248.500
 -24.54937553   7351094.000
 -24.44249916   7351936.000
 -24.33562469   7352780.000
 -24.22875023   7353623.000
 -24.12187576   7354469.500
 -24.01499939   7355322.000
 -23.90812492   7356173.000
 -23.80125046   7357029.000
 -23.69437408   7357886.000
 -23.58749962   7358738.500
 -23.48062515   7359590.000
 -23.37375069   7360439.000
 -23.26687431   7361284.500
 -23.15999985   7362129.000
 -23.05312538   7362970.500
 -22.94625092   7363816.000
 -22.83937454   7364664.000
 -22.73250008   7365517.000
 -22.62562561   7366373.000
 -22.51874924   7367230.500
 -22.41187477   7368090.000
 -22.30500031   7368947.500
 -22.19812584   7369800.500
 -22.09124947   7370650.500
 -21.98437500   7371497.500
 -21.87750053   7372342.500
 -21.77062416   7373187.000
 -21.66374969   7374034.500
 -21.55687523   7374882.500
 -21.45000076   7375732.000
 -21.34312439   7376584.500
 -21.23624992   7377436.500
 -21.12937546   7378287.000
 -21.02249908   7379133.000
 -20.91562462   7379979.000
 -20.80875015   7380820.500
 -20.70187569   7381660.500
 -20.59499931   7382499.000
 -20.48812485   7383342.000
 -20.38125038   7384186.500
 -20.27437592   7385035.000
 -20.16749954   7385886.500
 -20.06062508   7386739.500
 -19.95375061   7387592.000
 -19.84687424   7388443.500
 -19.73999977   7389290.500
 -19.63312531   7390136.500
 -19.52625084   7390979.000
 -19.41937447   7391821.000
 -19.31250000   7392665.000
 -19.20562553   7393511.000
 -19.09874916   7394360.000
 -18.99187469   7395212.000
 -18.88500023   7396064.500
 -18.77812576   7396917.000
 -18.67124939   7397766.500
 -18.56437492   7398611.500
 -18.45750046   7399454.500
 -18.35062408   7400293.000
 -18.24374962   7401132.500
 -18.13687515   7401972.500
 -18.03000069   7402815.500
 -17.92312431   7403660.500
 -17.81624985   7404510.500
 -17.70937538   7405362.000
 -17.60250092   7406215.500
 -17.49562454   7407067.000
 -17.38875008   7407915.000
 -17.28187561   7408764.500
 -17.17499924   7409612.000
 -17.06812477   7410457.000
 -16.96125031   7411305.000
 -16.85437584   7412152.500
 -16.74749947   7413004.000
 -16.64062500   7413857.500
 -16.53375053   7414715.500
 -16.42687416   7415575.500
 -16.31999969   7416436.500
 -16.21312523   7417295.000
 -16.10625076   7418151.000
 -15.99937534   7419004.500
 -15.89249992   7419852.000
 -15.78562546   7420699.000
 -15.67875004   7421544.000
 -15.57187462   7422391.000
 -15.46500015   7423240.000
 -15.35812473   7424093.500
 -15.25125027   7424946.000
 -15.14437485   7425802.500
 -15.03750038   7426656.000
 -14.93062496   7427507.500
 -14.82374954   7428356.000
 -14.71687508   7429203.500
 -14.60999966   7430049.500
 -14.50312519   7430895.500
 -14.39624977   7431744.500
 -14.28937531   7432597.500
 -14.18249989   7433453.500
 -14.07562542   7434313.500
 -13.96875000   7435171.000
 -13.86187458   7436029.000
 -13.75500011   7436882.500
 -13.64812469   7437734.000
 -13.54125023   7438581.000
 -13.43437481   7439426.000
 -13.32750034   7440271.500
 -13.22062492   7441119.000
 -13.11375046   7441972.000
 -13.00687504   7442828.500
 -12.89999962   7443688.500
 -12.79312515   7444549.000
 -12.68624973   7445409.500
 -12.57937527   7446267.500
 -12.47249985   7447122.500
 -12.36562538   7447972.000
 -12.25874996   7448815.500
 -12.15187454   7449658.500
 -12.04500008   7450504.000
 -11.93812466   7451351.500
 -11.83125019   7452203.500
 -11.72437477   7453059.500
 -11.61750031   7453920.000
 -11.51062489   7454780.500
 -11.40375042   7455636.000
 -11.29687500   7456487.000
 -11.18999958   7457331.500
 -11.08312511   7458172.500
 -10.97624969   7459011.000
 -10.86937523   7459853.000
 -10.76249981   7460698.500
 -10.65562534   7461552.000
 -10.54874992   7462412.500
 -10.44187546   7463276.000
 -10.33500004   7464139.500
 -10.22812462   7465000.000
 -10.12125015   7465855.500
 -10.01437473   7466703.000
 -9.907500267   7467546.500
 -9.800624847   7468387.500
 -9.693750381   7469230.500
 -9.586874962   7470077.500
 -9.479999542   7470928.500
 -9.373125076   7471787.000
 -9.266249657   7472648.000
 -9.159375191   7473507.000
 -9.052499771   7474361.500
 -8.945625305   7475211.500
 -8.838749886   7476052.000
 -8.731875420   7476890.000
 -8.625000000   7477726.000
 -8.518124580   7478567.000
 -8.411250114   7479410.500
 -8.304374695   7480263.500
 -8.197500229   7481121.000
 -8.090624809   7481980.500
 -7.983749866   7482839.500
 -7.876874924   7483692.500
 -7.769999981   7484539.500
 -7.663125038   7485379.500
 -7.556250095   7486212.500
 -7.449375153   7487048.000
 -7.342500210   7487886.500
 -7.235624790   7488728.500
 -7.128749847   7489578.000
 -7.021874905   7490432.000
 -6.914999962   7491289.000
 -6.808125019   7492146.500
 -6.701250076   7492999.500
 -6.594375134   7493845.500
 -6.487500191   7494684.500
 -6.380624771   7495521.000
 -6.273749828   7496354.000
 -6.166874886   7497189.500
 -6.059999943   7498029.500
 -5.953125000   7498876.000
 -5.846250057   7499727.000
 -5.739375114   7500583.500
 -5.632500172   7501439.500
 -5.525625229   7502294.000
 -5.418749809   7503145.000
 -5.311874866   7503992.000
 -5.204999924   7504833.000
 -5.098124981   7505673.500
 -4.991250038   7506511.000
 -4.884375095   7507352.500
 -4.777500153   7508199.000
 -4.670625210   7509047.000
 -4.563749790   7509898.500
 -4.456874847   7510751.500
 -4.349999905   7511605.000
 -4.243124962   7512453.500
 -4.136250019   7513302.500
 -4.029375076   7514148.000
 -3.922499895   7514992.500
 -3.815624952   7515837.000
 -3.708750010   7516683.500
 -3.601875067   7517531.500
 -3.494999886   7518382.000
 -3.388124943   7519235.000
 -3.281250000   7520085.500
 -3.174375057   7520937.000
 -3.067500114   7521785.000
 -2.960624933   7522632.000
 -2.853749990   7523478.000
 -2.746875048   7524322.000
 -2.640000105   7525168.500
 -2.533124924   7526017.000
 -2.426249981   7526869.000
 -2.319375038   7527723.500
 -2.212500095   7528584.000
 -2.105624914   7529444.500
 -1.998749971   7530305.000
 -1.891875029   7531162.500
 -1.784999967   7532017.000
 -1.678125024   7532865.500
 -1.571249962   7533710.000
 -1.464375019   7534550.500
 -1.357499957   7535390.000
 -1.250625014   7536229.000
 -1.143749952   7537067.500
 -1.036875010   7537910.500
 -0.9300000072   7538755.000
 -0.8231250048   7539604.000
 -0.7162500024   7540452.500
 -0.6093750000   7541304.500
 -0.5024999976   7542157.500
 -0.3956249952   7543006.500
 -0.2887499928   7543855.500
 -0.1818750054   7544702.500
 -0.7500000298E-01   7545546.500
 0.3187499940E-01   7546391.500
 0.1387500018   7547237.000
 0.2456250042   7548087.500
 0.3524999917   7548940.500
 0.4593749940   7549796.500
 0.5662500262   7550654.000
 0.6731250286   7551509.000
 0.7799999714   7552362.000
 0.8868749738   7553212.500
 0.9937499762   7554058.500
 1.100625038   7554904.500
 1.207499981   7555750.000
 1.314375043   7556602.000
 1.421249986   7557456.500
 1.528125048   7558315.500
 1.634999990   7559175.500
 1.741875052   7560036.500
 1.848749995   7560897.000
 1.955625057   7561752.000
