 -30.00000000   -535205.1875
 -29.89312553   -535264.5000
 -29.78624916   -535321.9375
 -29.67937469   -535376.6250
 -29.57250023   -535430.8750
 -29.46562576   -535482.3750
 -29.35874939   -535535.5625
 -29.25187492   -535587.8125
 -29.14500046   -535640.5625
 -29.03812408   -535693.0625
 -28.93124962   -535747.2500
 -28.82437515   -535803.2500
 -28.71750069   -535860.5000
 -28.61062431   -535918.1250
 -28.50374985   -535977.9375
 -28.39687538   -536039.1250
 -28.29000092   -536098.3125
 -28.18312454   -536157.7500
 -28.07625008   -536215.8125
 -27.96937561   -536270.3750
 -27.86249924   -536325.9375
 -27.75562477   -536377.3750
 -27.64875031   -536426.7500
 -27.54187584   -536474.5000
 -27.43499947   -536522.0000
 -27.32812500   -536567.7500
 -27.22125053   -536614.5625
 -27.11437416   -536662.0000
 -27.00749969   -536710.8750
 -26.90062523   -536761.0000
 -26.79375076   -536814.2500
 -26.68687439   -536869.0000
 -26.57999992   -536926.7500
 -26.47312546   -536985.1875
 -26.36624908   -537047.5625
 -26.25937462   -537107.8125
 -26.15250015   -537170.1875
 -26.04562569   -537232.6250
 -25.93874931   -537293.5625
 -25.83187485   -537353.5000
 -25.72500038   -537410.8750
 -25.61812592   -537464.8125
 -25.51124954   -537517.7500
 -25.40437508   -537565.8750
 -25.29750061   -537613.6250
 -25.19062424   -537660.7500
 -25.08374977   -537707.6875
 -24.97687531   -537755.5000
 -24.87000084   -537804.3125
 -24.76312447   -537856.3750
 -24.65625000   -537908.4375
 -24.54937553   -537965.8750
 -24.44249916   -538022.0000
 -24.33562469   -538082.0000
 -24.22875023   -538141.4375
 -24.12187576   -538200.5000
 -24.01499939   -538260.9375
 -23.90812492   -538319.1250
 -23.80125046   -538377.2500
 -23.69437408   -538434.6250
 -23.58749962   -538490.6875
 -23.48062515   -538545.2500
 -23.37375069   -538598.8750
 -23.26687431   -538651.5000
 -23.15999985   -538702.6250
 -23.05312538   -538753.1875
 -22.94625092   -538803.6875
 -22.83937454   -538852.0625
 -22.73250008   -538901.8750
 -22.62562561   -538954.0625
 -22.51874924   -539006.0000
 -22.41187477   -539059.9375
 -22.30500031   -539115.1875
 -22.19812584   -539172.3750
 -22.09124947   -539231.5625
 -21.98437500   -539292.8125
 -21.87750053   -539353.9375
 -21.77062416   -539416.1250
 -21.66374969   -539475.8750
 -21.55687523   -539534.9375
 -21.45000076   -539593.8125
 -21.34312439   -539649.8125
 -21.23624992   -539705.8125
 -21.12937546   -539758.4375
 -21.02249908   -539811.1875
 -20.91562462   -539864.9375
 -20.80875015   -539917.3750
 -20.70187569   -539969.3125
 -20.59499931   -540023.3750
 -20.48812485   -540078.8125
 -20.38125038   -540134.3750
 -20.27437592   -540191.6875
 -20.16749954   -540249.5000
 -20.06062508   -540309.2500
 -19.95375061   -540370.1250
 -19.84687424   -540431.5625
 -19.73999977   -540495.0625
 -19.63312531   -540560.6250
 -19.52625084   -540625.6250
 -19.41937447   -540689.8750
 -19.31250000   -540753.1875
 -19.20562553   -540814.3125
 -19.09874916   -540871.6250
 -18.99187469   -540929.1250
 -18.88500023   -540982.5000
 -18.77812576   -541034.2500
 -18.67124939   -541086.3125
 -18.56437492   -541138.2500
 -18.45750046   -541192.2500
 -18.35062408   -541247.7500
 -18.24374962   -541305.2500
 -18.13687515   -541363.4375
 -18.03000069   -541422.9375
 -17.92312431   -541484.4375
 -17.81624985   -541545.5000
 -17.70937538   -541606.6875
 -17.60250092   -541667.5625
 -17.49562454   -541728.3125
 -17.38875008   -541789.6250
 -17.28187561   -541850.3125
 -17.17499924   -541910.0625
 -17.06812477   -541967.5000
 -16.96125031   -542025.1250
 -16.85437584   -542080.8125
 -16.74749947   -542135.3125
 -16.64062500   -542190.7500
 -16.53375053   -542244.8750
 -16.42687416   -542301.0625
 -16.31999969   -542356.5000
 -16.21312523   -542415.9375
 -16.10625076   -542476.9375
 -15.99937534   -542537.5000
 -15.89249992   -542601.3125
 -15.78562546   -542664.3750
 -15.67875004   -542727.3750
 -15.57187462   -542791.1875
 -15.46500015   -542853.2500
 -15.35812473   -542916.7500
 -15.25125027   -542978.3125
 -15.14437485   -543039.3750
 -15.03750038   -543098.4375
 -14.93062496   -543158.8750
 -14.82374954   -543217.2500
 -14.71687508   -543274.8125
 -14.60999966   -543330.5000
 -14.50312519   -543385.3750
 -14.39624977   -543441.5625
 -14.28937531   -543495.0625
 -14.18249989   -543548.3750
 -14.07562542   -543601.2500
 -13.96875000   -543656.1250
 -13.86187458   -543709.9375
 -13.75500011   -543766.0625
 -13.64812469   -543821.3125
 -13.54125023   -543880.6875
 -13.43437481   -543941.0625
 -13.32750034   -544005.1250
 -13.22062492   -544071.9375
 -13.11375046   -544142.7500
 -13.00687504   -544213.4375
 -12.89999962   -544284.6875
 -12.79312515   -544354.8125
 -12.68624973   -544422.4375
 -12.57937527   -544485.1250
 -12.47249985   -544546.1250
 -12.36562538   -544600.4375
 -12.25874996   -544652.6875
 -12.15187454   -544702.6250
 -12.04500008   -544750.8750
 -11.93812466   -544800.6875
 -11.83125019   -544851.5625
 -11.72437477   -544904.5000
 -11.61750031   -544958.4375
 -11.51062489   -545016.5000
 -11.40375042   -545076.3750
 -11.29687500   -545137.1250
 -11.18999958   -545200.4375
 -11.08312511   -545265.7500
 -10.97624969   -545333.0625
 -10.86937523   -545399.5000
 -10.76249981   -545467.2500
 -10.65562534   -545534.0625
 -10.54874992   -545598.6875
 -10.44187546   -545662.1250
 -10.33500004   -545722.5000
 -10.22812462   -545778.6875
 -10.12125015   -545830.8750
 -10.01437473   -545882.1875
 -9.907500267   -545934.7500
 -9.800624847   -545984.5000
 -9.693750381   -546036.6250
 -9.586874962   -546089.7500
 -9.479999542   -546146.8750
 -9.373125076   -546207.6875
 -9.266249657   -546272.0000
 -9.159375191   -546341.0000
 -9.052499771   -546411.5625
 -8.945625305   -546484.0000
 -8.838749886   -546557.6875
 -8.731875420   -546629.4375
 -8.625000000   -546700.3125
 -8.518124580   -546767.4375
 -8.411250114   -546831.0625
 -8.304374695   -546891.1875
 -8.197500229   -546946.4375
 -8.090624809   -546998.1250
 -7.983749866   -547045.7500
 -7.876874924   -547091.8750
 -7.769999981   -547138.6875
 -7.663125038   -547185.5625
 -7.556250095   -547233.3750
 -7.449375153   -547284.6250
 -7.342500210   -547339.5000
 -7.235624790   -547397.0625
 -7.128749847   -547455.8750
 -7.021874905   -547517.5625
 -6.914999962   -547579.7500
 -6.808125019   -547641.3125
 -6.701250076   -547702.8750
 -6.594375134   -547760.7500
 -6.487500191   -547819.6250
 -6.380624771   -547879.1250
 -6.273749828   -547938.0000
 -6.166874886   -547999.2500
 -6.059999943   -548060.7500
 -5.953125000   -548124.5625
 -5.846250057   -548188.6250
 -5.739375114   -548251.9375
 -5.632500172   -548313.0000
 -5.525625229   -548373.1875
 -5.418749809   -548430.6875
 -5.311874866   -548486.0000
 -5.204999924   -548540.1875
 -5.098124981   -548593.6875
 -4.991250038   -548647.6875
 -4.884375095   -548704.8750
 -4.777500153   -548764.9375
 -4.670625210   -548828.5000
 -4.563749790   -548894.0625
 -4.456874847   -548964.8750
 -4.349999905   -549036.8125
 -4.243124962   -549108.1250
 -4.136250019   -549180.1250
 -4.029375076   -549251.1875
 -3.922499895   -549321.1250
 -3.815624952   -549387.3750
 -3.708750010   -549450.8750
 -3.601875067   -549513.2500
 -3.494999886   -549574.3125
 -3.388124943   -549634.4375
 -3.281250000   -549694.4375
 -3.174375057   -549752.2500
 -3.067500114   -549810.5625
 -2.960624933   -549868.5000
 -2.853749990   -549926.3125
 -2.746875048   -549983.7500
 -2.640000105   -550042.6875
 -2.533124924   -550102.1875
 -2.426249981   -550161.5625
 -2.319375038   -550221.7500
 -2.212500095   -550285.6875
 -2.105624914   -550350.6875
 -1.998749971   -550418.3125
 -1.891875029   -550490.1875
 -1.784999967   -550560.2500
 -1.678125024   -550631.2500
 -1.571249962   -550700.3750
 -1.464375019   -550767.1250
 -1.357499957   -550829.7500
 -1.250625014   -550887.5000
 -1.143749952   -550940.8750
 -1.036875010   -550992.2500
 -0.9300000072   -551038.2500
 -0.8231250048   -551087.0625
 -0.7162500024   -551131.7500
 -0.6093750000   -551179.3750
 -0.5024999976   -551229.1250
 -0.3956249952   -551280.9375
 -0.2887499928   -551336.4375
 -0.1818750054   -551395.8125
 -0.7500000298E-01   -551459.3750
 0.3187499940E-01   -551526.4375
 0.1387500018   -551596.7500
 0.2456250042   -551668.5625
 0.3524999917   -551740.8125
 0.4593749940   -551809.2500
 0.5662500262   -551875.9375
 0.6731250286   -551939.1250
 0.7799999714   -551994.8750
 0.8868749738   -552048.1875
 0.9937499762   -552096.0625
 1.100625038   -552141.8125
 1.207499981   -552185.6250
 1.314375043   -552231.3125
 1.421249986   -552281.9375
 1.528125048   -552336.9375
 1.634999990   -552396.0000
 1.741875052   -552460.7500
 1.848749995   -552530.1875
 1.955625057   -552600.6875
