 -30.00000000   -140628.9062
 -29.89312553   -140663.8750
 -29.78624916   -140716.3438
 -29.67937469   -140783.0938
 -29.57250023   -140859.5469
 -29.46562576   -140940.3906
 -29.35874939   -141023.5312
 -29.25187492   -141101.8750
 -29.14500046   -141173.1250
 -29.03812408   -141234.7969
 -28.93124962   -141287.0625
 -28.82437515   -141328.5000
 -28.71750069   -141363.1562
 -28.61062431   -141389.0000
 -28.50374985   -141413.1562
 -28.39687538   -141431.8438
 -28.29000092   -141451.5312
 -28.18312454   -141475.1406
 -28.07625008   -141504.3438
 -27.96937561   -141541.2500
 -27.86249924   -141587.4219
 -27.75562477   -141641.8750
 -27.64875031   -141708.3594
 -27.54187584   -141780.8750
 -27.43499947   -141860.8750
 -27.32812500   -141943.6250
 -27.22125053   -142024.5156
 -27.11437416   -142100.5625
 -27.00749969   -142167.8125
 -26.90062523   -142224.7188
 -26.79375076   -142267.8281
 -26.68687439   -142297.8594
 -26.57999992   -142318.0781
 -26.47312546   -142330.8906
 -26.36624908   -142338.4844
 -26.25937462   -142345.9531
 -26.15250015   -142356.7969
 -26.04562569   -142372.5938
 -25.93874931   -142396.2031
 -25.83187485   -142426.0156
 -25.72500038   -142466.3125
 -25.61812592   -142512.3438
 -25.51124954   -142567.4219
 -25.40437508   -142626.1562
 -25.29750061   -142687.8594
 -25.19062424   -142752.2656
 -25.08374977   -142815.7500
 -24.97687531   -142879.2656
 -24.87000084   -142937.9375
 -24.76312447   -142993.5156
 -24.65625000   -143044.7969
 -24.54937553   -143088.6719
 -24.44249916   -143124.9844
 -24.33562469   -143155.5156
 -24.22875023   -143180.3125
 -24.12187576   -143198.9844
 -24.01499939   -143214.0312
 -23.90812492   -143224.5156
 -23.80125046   -143233.8750
 -23.69437408   -143243.9844
 -23.58749962   -143256.1562
 -23.48062515   -143271.9531
 -23.37375069   -143294.6406
 -23.26687431   -143322.2969
 -23.15999985   -143358.2500
 -23.05312538   -143399.0781
 -22.94625092   -143447.1094
 -22.83937454   -143498.7188
 -22.73250008   -143552.3281
 -22.62562561   -143603.7500
 -22.51874924   -143654.1875
 -22.41187477   -143699.0156
 -22.30500031   -143736.2812
 -22.19812584   -143765.7344
 -22.09124947   -143787.5312
 -21.98437500   -143800.9219
 -21.87750053   -143808.2344
 -21.77062416   -143809.8750
 -21.66374969   -143808.9844
 -21.55687523   -143809.4062
 -21.45000076   -143809.8125
 -21.34312439   -143815.0469
 -21.23624992   -143823.9531
 -21.12937546   -143839.0625
 -21.02249908   -143859.3750
 -20.91562462   -143885.4531
 -20.80875015   -143917.9688
 -20.70187569   -143953.5781
 -20.59499931   -143992.7031
 -20.48812485   -144035.3281
 -20.38125038   -144076.2812
 -20.27437592   -144116.5469
 -20.16749954   -144149.1094
 -20.06062508   -144175.1250
 -19.95375061   -144192.4062
 -19.84687424   -144198.7812
 -19.73999977   -144198.2656
 -19.63312531   -144188.3281
 -19.52625084   -144175.1875
 -19.41937447   -144159.6719
 -19.31250000   -144144.7500
 -19.20562553   -144133.7500
 -19.09874916   -144129.2656
 -18.99187469   -144131.8906
 -18.88500023   -144145.4844
 -18.77812576   -144168.6406
 -18.67124939   -144201.9375
 -18.56437492   -144242.3594
 -18.45750046   -144288.3594
 -18.35062408   -144339.1719
 -18.24374962   -144386.0938
 -18.13687515   -144429.4062
 -18.03000069   -144462.3125
 -17.92312431   -144485.2031
 -17.81624985   -144494.9844
 -17.70937538   -144490.6094
 -17.60250092   -144474.4844
 -17.49562454   -144450.8281
 -17.38875008   -144422.2031
 -17.28187561   -144392.6562
 -17.17499924   -144365.0312
 -17.06812477   -144343.2188
 -16.96125031   -144326.9531
 -16.85437584   -144318.8125
 -16.74749947   -144319.5312
 -16.64062500   -144327.5312
 -16.53375053   -144344.4844
 -16.42687416   -144365.6562
 -16.31999969   -144391.9844
 -16.21312523   -144422.2656
 -16.10625076   -144451.1094
 -15.99937534   -144477.8125
 -15.89249992   -144500.1094
 -15.78562546   -144513.9219
 -15.67875004   -144517.5781
 -15.57187462   -144510.7812
 -15.46500015   -144490.6094
 -15.35812473   -144460.8281
 -15.25125027   -144422.5781
 -15.14437485   -144376.6094
 -15.03750038   -144329.5938
 -14.93062496   -144284.7656
 -14.82374954   -144247.5781
 -14.71687508   -144219.5625
 -14.60999966   -144205.0312
 -14.50312519   -144205.9219
 -14.39624977   -144219.6406
 -14.28937531   -144244.6094
 -14.18249989   -144276.7031
 -14.07562542   -144313.1875
 -13.96875000   -144349.1719
 -13.86187458   -144378.2969
 -13.75500011   -144398.4219
 -13.64812469   -144407.1094
 -13.54125023   -144402.6094
 -13.43437481   -144387.1406
 -13.32750034   -144361.4062
 -13.22062492   -144328.9062
 -13.11375046   -144293.2500
 -13.00687504   -144258.5625
 -12.89999962   -144228.0469
 -12.79312515   -144202.1406
 -12.68624973   -144182.9688
 -12.57937527   -144173.3281
 -12.47249985   -144169.1719
 -12.36562538   -144171.6406
 -12.25874996   -144180.3281
 -12.15187454   -144191.7969
 -12.04500008   -144208.8906
 -11.93812466   -144228.5156
 -11.83125019   -144249.1094
 -11.72437477   -144272.2031
 -11.61750031   -144295.1094
 -11.51062489   -144316.9062
 -11.40375042   -144335.2188
 -11.29687500   -144348.5156
 -11.18999958   -144354.0312
 -11.08312511   -144352.5312
 -10.97624969   -144342.9062
 -10.86937523   -144324.3125
 -10.76249981   -144300.7969
 -10.65562534   -144271.6406
 -10.54874992   -144243.0625
 -10.44187546   -144215.5156
 -10.33500004   -144195.6875
 -10.22812462   -144180.5938
 -10.12125015   -144177.6719
 -10.01437473   -144181.7031
 -9.907500267   -144194.7031
 -9.800624847   -144212.3750
 -9.693750381   -144234.5781
 -9.586874962   -144254.3906
 -9.479999542   -144271.5625
 -9.373125076   -144284.2500
 -9.266249657   -144288.8281
 -9.159375191   -144286.0312
 -9.052499771   -144275.6562
 -8.945625305   -144260.9688
 -8.838749886   -144240.3438
 -8.731875420   -144216.9531
 -8.625000000   -144191.0469
 -8.518124580   -144162.0312
 -8.411250114   -144136.1406
 -8.304374695   -144109.7031
 -8.197500229   -144086.3438
 -8.090624809   -144066.7812
 -7.983749866   -144052.9688
 -7.876874924   -144045.6406
 -7.769999981   -144047.0312
 -7.663125038   -144055.7188
 -7.556250095   -144072.0000
 -7.449375153   -144094.3281
 -7.342500210   -144123.2812
 -7.235624790   -144153.5938
 -7.128749847   -144183.9062
 -7.021874905   -144211.2188
 -6.914999962   -144232.5625
 -6.808125019   -144245.2969
 -6.701250076   -144246.4844
 -6.594375134   -144236.0156
 -6.487500191   -144216.5938
 -6.380624771   -144187.8906
 -6.273749828   -144151.8281
 -6.166874886   -144113.4375
 -6.059999943   -144076.5781
 -5.953125000   -144044.3125
 -5.846250057   -144021.7188
 -5.739375114   -144009.5156
 -5.632500172   -144008.3594
 -5.525625229   -144020.2812
 -5.418749809   -144042.9688
 -5.311874866   -144069.8438
 -5.204999924   -144101.8438
 -5.098124981   -144134.5000
 -4.991250038   -144163.1250
 -4.884375095   -144185.7031
 -4.777500153   -144201.8125
 -4.670625210   -144209.2969
 -4.563749790   -144210.1875
 -4.456874847   -144205.1094
 -4.349999905   -144192.6562
 -4.243124962   -144176.7969
 -4.136250019   -144156.3281
 -4.029375076   -144134.4688
 -3.922499895   -144111.2188
 -3.815624952   -144089.2656
 -3.708750010   -144070.5625
 -3.601875067   -144058.6250
 -3.494999886   -144050.4531
 -3.388124943   -144051.1562
 -3.281250000   -144064.5781
 -3.174375057   -144088.0938
 -3.067500114   -144118.1250
 -2.960624933   -144156.3594
 -2.853749990   -144197.2344
 -2.746875048   -144236.2969
 -2.640000105   -144271.1406
 -2.533124924   -144295.0312
 -2.426249981   -144309.0000
 -2.319375038   -144309.6562
 -2.212500095   -144298.5938
 -2.105624914   -144274.4688
 -1.998749971   -144243.6406
 -1.891875029   -144206.7656
 -1.784999967   -144169.8438
 -1.678125024   -144134.5312
 -1.571249962   -144104.7500
 -1.464375019   -144084.2031
 -1.357499957   -144072.7812
 -1.250625014   -144071.9844
 -1.143749952   -144081.3906
 -1.036875010   -144097.5312
 -0.9300000072   -144119.2656
 -0.8231250048   -144142.7500
 -0.7162500024   -144166.7969
 -0.6093750000   -144188.2188
 -0.5024999976   -144207.1406
 -0.3956249952   -144222.8750
 -0.2887499928   -144234.7031
 -0.1818750054   -144240.1406
 -0.7500000298E-01   -144239.6406
 0.3187499940E-01   -144233.5469
 0.1387500018   -144222.4844
 0.2456250042   -144205.2656
 0.3524999917   -144182.5000
 0.4593749940   -144159.6406
 0.5662500262   -144136.0625
 0.6731250286   -144116.6562
 0.7799999714   -144104.1406
 0.8868749738   -144100.5625
 0.9937499762   -144105.9062
 1.100625038   -144122.3750
 1.207499981   -144147.6094
 1.314375043   -144179.3125
 1.421249986   -144214.7344
 1.528125048   -144250.1719
 1.634999990   -144281.3750
 1.741875052   -144308.5312
 1.848749995   -144325.4219
 1.955625057   -144334.9219
