 -30.00000000   10340660.00
 -29.89312553   10341843.00
 -29.78624916   10343025.00
 -29.67937469   10344202.00
 -29.57250023   10345380.00
 -29.46562576   10346561.00
 -29.35874939   10347745.00
 -29.25187492   10348936.00
 -29.14500046   10350132.00
 -29.03812408   10351332.00
 -28.93124962   10352534.00
 -28.82437515   10353735.00
 -28.71750069   10354934.00
 -28.61062431   10356128.00
 -28.50374985   10357316.00
 -28.39687538   10358499.00
 -28.29000092   10359678.00
 -28.18312454   10360855.00
 -28.07625008   10362035.00
 -27.96937561   10363218.00
 -27.86249924   10364405.00
 -27.75562477   10365596.00
 -27.64875031   10366787.00
 -27.54187584   10367977.00
 -27.43499947   10369162.00
 -27.32812500   10370346.00
 -27.22125053   10371525.00
 -27.11437416   10372704.00
 -27.00749969   10373885.00
 -26.90062523   10375069.00
 -26.79375076   10376263.00
 -26.68687439   10377462.00
 -26.57999992   10378665.00
 -26.47312546   10379868.00
 -26.36624908   10381072.00
 -26.25937462   10382271.00
 -26.15250015   10383465.00
 -26.04562569   10384656.00
 -25.93874931   10385843.00
 -25.83187485   10387032.00
 -25.72500038   10388221.00
 -25.61812592   10389415.00
 -25.51124954   10390613.00
 -25.40437508   10391813.00
 -25.29750061   10393011.00
 -25.19062424   10394210.00
 -25.08374977   10395405.00
 -24.97687531   10396599.00
 -24.87000084   10397793.00
 -24.76312447   10398985.00
 -24.65625000   10400179.00
 -24.54937553   10401374.00
 -24.44249916   10402568.00
 -24.33562469   10403760.00
 -24.22875023   10404947.00
 -24.12187576   10406129.00
 -24.01499939   10407306.00
 -23.90812492   10408479.00
 -23.80125046   10409650.00
 -23.69437408   10410823.00
 -23.58749962   10411998.00
 -23.48062515   10413178.00
 -23.37375069   10414363.00
 -23.26687431   10415552.00
 -23.15999985   10416745.00
 -23.05312538   10417937.00
 -22.94625092   10419128.00
 -22.83937454   10420314.00
 -22.73250008   10421498.00
 -22.62562561   10422675.00
 -22.51874924   10423851.00
 -22.41187477   10425026.00
 -22.30500031   10426201.00
 -22.19812584   10427378.00
 -22.09124947   10428557.00
 -21.98437500   10429741.00
 -21.87750053   10430928.00
 -21.77062416   10432117.00
 -21.66374969   10433306.00
 -21.55687523   10434497.00
 -21.45000076   10435688.00
 -21.34312439   10436883.00
 -21.23624992   10438078.00
 -21.12937546   10439274.00
 -21.02249908   10440471.00
 -20.91562462   10441672.00
 -20.80875015   10442871.00
 -20.70187569   10444074.00
 -20.59499931   10445272.00
 -20.48812485   10446472.00
 -20.38125038   10447667.00
 -20.27437592   10448858.00
 -20.16749954   10450045.00
 -20.06062508   10451229.00
 -19.95375061   10452413.00
 -19.84687424   10453598.00
 -19.73999977   10454786.00
 -19.63312531   10455981.00
 -19.52625084   10457182.00
 -19.41937447   10458383.00
 -19.31250000   10459585.00
 -19.20562553   10460785.00
 -19.09874916   10461978.00
 -18.99187469   10463166.00
 -18.88500023   10464349.00
 -18.77812576   10465530.00
 -18.67124939   10466709.00
 -18.56437492   10467891.00
 -18.45750046   10469077.00
 -18.35062408   10470264.00
 -18.24374962   10471452.00
 -18.13687515   10472636.00
 -18.03000069   10473815.00
 -17.92312431   10474988.00
 -17.81624985   10476158.00
 -17.70937538   10477326.00
 -17.60250092   10478497.00
 -17.49562454   10479677.00
 -17.38875008   10480864.00
 -17.28187561   10482058.00
 -17.17499924   10483254.00
 -17.06812477   10484448.00
 -16.96125031   10485639.00
 -16.85437584   10486822.00
 -16.74749947   10487996.00
 -16.64062500   10489168.00
 -16.53375053   10490337.00
 -16.42687416   10491510.00
 -16.31999969   10492687.00
 -16.21312523   10493871.00
 -16.10625076   10495060.00
 -15.99937534   10496249.00
 -15.89249992   10497434.00
 -15.78562546   10498615.00
 -15.67875004   10499791.00
 -15.57187462   10500962.00
 -15.46500015   10502133.00
 -15.35812473   10503309.00
 -15.25125027   10504490.00
 -15.14437485   10505678.00
 -15.03750038   10506872.00
 -14.93062496   10508072.00
 -14.82374954   10509270.00
 -14.71687508   10510465.00
 -14.60999966   10511656.00
 -14.50312519   10512844.00
 -14.39624977   10514030.00
 -14.28937531   10515217.00
 -14.18249989   10516409.00
 -14.07562542   10517604.00
 -13.96875000   10518806.00
 -13.86187458   10520010.00
 -13.75500011   10521218.00
 -13.64812469   10522426.00
 -13.54125023   10523630.00
 -13.43437481   10524829.00
 -13.32750034   10526028.00
 -13.22062492   10527223.00
 -13.11375046   10528422.00
 -13.00687504   10529621.00
 -12.89999962   10530826.00
 -12.79312515   10532032.00
 -12.68624973   10533242.00
 -12.57937527   10534454.00
 -12.47249985   10535660.00
 -12.36562538   10536866.00
 -12.25874996   10538073.00
 -12.15187454   10539277.00
 -12.04500008   10540481.00
 -11.93812466   10541683.00
 -11.83125019   10542888.00
 -11.72437477   10544092.00
 -11.61750031   10545296.00
 -11.51062489   10546499.00
 -11.40375042   10547699.00
 -11.29687500   10548899.00
 -11.18999958   10550098.00
 -11.08312511   10551298.00
 -10.97624969   10552497.00
 -10.86937523   10553698.00
 -10.76249981   10554902.00
 -10.65562534   10556106.00
 -10.54874992   10557310.00
 -10.44187546   10558512.00
 -10.33500004   10559716.00
 -10.22812462   10560916.00
 -10.12125015   10562121.00
 -10.01437473   10563326.00
 -9.907500267   10564531.00
 -9.800624847   10565734.00
 -9.693750381   10566935.00
 -9.586874962   10568129.00
 -9.479999542   10569318.00
 -9.373125076   10570498.00
 -9.266249657   10571675.00
 -9.159375191   10572851.00
 -9.052499771   10574027.00
 -8.945625305   10575207.00
 -8.838749886   10576390.00
 -8.731875420   10577578.00
 -8.625000000   10578763.00
 -8.518124580   10579950.00
 -8.411250114   10581135.00
 -8.304374695   10582319.00
 -8.197500229   10583504.00
 -8.090624809   10584694.00
 -7.983749866   10585889.00
 -7.876874924   10587088.00
 -7.769999981   10588291.00
 -7.663125038   10589498.00
 -7.556250095   10590703.00
 -7.449375153   10591908.00
 -7.342500210   10593110.00
 -7.235624790   10594314.00
 -7.128749847   10595517.00
 -7.021874905   10596726.00
 -6.914999962   10597940.00
 -6.808125019   10599160.00
 -6.701250076   10600383.00
 -6.594375134   10601606.00
 -6.487500191   10602830.00
 -6.380624771   10604051.00
 -6.273749828   10605272.00
 -6.166874886   10606492.00
 -6.059999943   10607713.00
 -5.953125000   10608938.00
 -5.846250057   10610166.00
 -5.739375114   10611398.00
 -5.632500172   10612632.00
 -5.525625229   10613864.00
 -5.418749809   10615090.00
 -5.311874866   10616311.00
 -5.204999924   10617528.00
 -5.098124981   10618740.00
 -4.991250038   10619951.00
 -4.884375095   10621164.00
 -4.777500153   10622378.00
 -4.670625210   10623596.00
 -4.563749790   10624814.00
 -4.456874847   10626031.00
 -4.349999905   10627246.00
 -4.243124962   10628455.00
 -4.136250019   10629662.00
 -4.029375076   10630871.00
 -3.922499895   10632081.00
 -3.815624952   10633296.00
 -3.708750010   10634511.00
 -3.601875067   10635730.00
 -3.494999886   10636945.00
 -3.388124943   10638153.00
 -3.281250000   10639356.00
 -3.174375057   10640549.00
 -3.067500114   10641735.00
 -2.960624933   10642921.00
 -2.853749990   10644109.00
 -2.746875048   10645302.00
 -2.640000105   10646502.00
 -2.533124924   10647706.00
 -2.426249981   10648911.00
 -2.319375038   10650111.00
 -2.212500095   10651303.00
 -2.105624914   10652488.00
 -1.998749971   10653667.00
 -1.891875029   10654847.00
 -1.784999967   10656030.00
 -1.678125024   10657221.00
 -1.571249962   10658417.00
 -1.464375019   10659618.00
 -1.357499957   10660819.00
 -1.250625014   10662015.00
 -1.143749952   10663202.00
 -1.036875010   10664384.00
 -0.9300000072   10665559.00
 -0.8231250048   10666733.00
 -0.7162500024   10667908.00
 -0.6093750000   10669088.00
 -0.5024999976   10670276.00
 -0.3956249952   10671469.00
 -0.2887499928   10672664.00
 -0.1818750054   10673857.00
 -0.7500000298E-01   10675047.00
 0.3187499940E-01   10676233.00
 0.1387500018   10677415.00
 0.2456250042   10678594.00
 0.3524999917   10679778.00
 0.4593749940   10680968.00
 0.5662500262   10682165.00
 0.6731250286   10683368.00
 0.7799999714   10684576.00
 0.8868749738   10685783.00
 0.9937499762   10686991.00
 1.100625038   10688198.00
 1.207499981   10689402.00
 1.314375043   10690605.00
 1.421249986   10691805.00
 1.528125048   10693005.00
 1.634999990   10694202.00
 1.741875052   10695397.00
 1.848749995   10696592.00
 1.955625057   10697786.00
