 -30.00000000   -3853291.250
 -29.89312553   -3853744.750
 -29.78624916   -3854210.250
 -29.67937469   -3854682.500
 -29.57250023   -3855162.250
 -29.46562576   -3855644.000
 -29.35874939   -3856126.250
 -29.25187492   -3856607.500
 -29.14500046   -3857086.750
 -29.03812408   -3857561.500
 -28.93124962   -3858030.500
 -28.82437515   -3858493.000
 -28.71750069   -3858947.500
 -28.61062431   -3859394.500
 -28.50374985   -3859834.500
 -28.39687538   -3860269.250
 -28.29000092   -3860702.500
 -28.18312454   -3861137.000
 -28.07625008   -3861578.750
 -27.96937561   -3862026.000
 -27.86249924   -3862482.000
 -27.75562477   -3862945.500
 -27.64875031   -3863412.750
 -27.54187584   -3863878.750
 -27.43499947   -3864342.500
 -27.32812500   -3864799.250
 -27.22125053   -3865247.750
 -27.11437416   -3865690.250
 -27.00749969   -3866127.250
 -26.90062523   -3866561.250
 -26.79375076   -3866993.000
 -26.68687439   -3867426.000
 -26.57999992   -3867857.000
 -26.47312546   -3868289.000
 -26.36624908   -3868721.500
 -26.25937462   -3869156.000
 -26.15250015   -3869593.500
 -26.04562569   -3870034.000
 -25.93874931   -3870480.250
 -25.83187485   -3870932.750
 -25.72500038   -3871390.750
 -25.61812592   -3871853.250
 -25.51124954   -3872318.500
 -25.40437508   -3872784.000
 -25.29750061   -3873247.000
 -25.19062424   -3873704.250
 -25.08374977   -3874158.000
 -24.97687531   -3874609.250
 -24.87000084   -3875059.000
 -24.76312447   -3875508.000
 -24.65625000   -3875959.500
 -24.54937553   -3876412.250
 -24.44249916   -3876863.750
 -24.33562469   -3877316.250
 -24.22875023   -3877767.500
 -24.12187576   -3878219.000
 -24.01499939   -3878668.500
 -23.90812492   -3879119.250
 -23.80125046   -3879570.000
 -23.69437408   -3880022.000
 -23.58749962   -3880476.250
 -23.48062515   -3880928.000
 -23.37375069   -3881378.750
 -23.26687431   -3881825.250
 -23.15999985   -3882268.250
 -23.05312538   -3882707.500
 -22.94625092   -3883141.250
 -22.83937454   -3883573.000
 -22.73250008   -3884004.250
 -22.62562561   -3884437.250
 -22.51874924   -3884872.750
 -22.41187477   -3885315.250
 -22.30500031   -3885763.250
 -22.19812584   -3886217.500
 -22.09124947   -3886675.750
 -21.98437500   -3887137.250
 -21.87750053   -3887599.750
 -21.77062416   -3888061.500
 -21.66374969   -3888519.000
 -21.55687523   -3888974.250
 -21.45000076   -3889428.500
 -21.34312439   -3889878.500
 -21.23624992   -3890329.250
 -21.12937546   -3890780.500
 -21.02249908   -3891231.250
 -20.91562462   -3891686.500
 -20.80875015   -3892144.750
 -20.70187569   -3892607.000
 -20.59499931   -3893074.750
 -20.48812485   -3893545.250
 -20.38125038   -3894017.750
 -20.27437592   -3894494.000
 -20.16749954   -3894969.250
 -20.06062508   -3895445.500
 -19.95375061   -3895922.750
 -19.84687424   -3896401.000
 -19.73999977   -3896877.250
 -19.63312531   -3897350.000
 -19.52625084   -3897820.000
 -19.41937447   -3898285.250
 -19.31250000   -3898744.000
 -19.20562553   -3899198.250
 -19.09874916   -3899645.500
 -18.99187469   -3900092.000
 -18.88500023   -3900537.000
 -18.77812576   -3900984.500
 -18.67124939   -3901434.500
 -18.56437492   -3901887.000
 -18.45750046   -3902343.500
 -18.35062408   -3902802.750
 -18.24374962   -3903263.000
 -18.13687515   -3903724.250
 -18.03000069   -3904185.250
 -17.92312431   -3904644.750
 -17.81624985   -3905101.500
 -17.70937538   -3905557.250
 -17.60250092   -3906009.250
 -17.49562454   -3906459.250
 -17.38875008   -3906904.250
 -17.28187561   -3907349.750
 -17.17499924   -3907791.750
 -17.06812477   -3908234.500
 -16.96125031   -3908675.000
 -16.85437584   -3909117.000
 -16.74749947   -3909558.250
 -16.64062500   -3910000.750
 -16.53375053   -3910445.750
 -16.42687416   -3910894.500
 -16.31999969   -3911346.000
 -16.21312523   -3911801.250
 -16.10625076   -3912260.500
 -15.99937534   -3912720.750
 -15.89249992   -3913180.250
 -15.78562546   -3913638.250
 -15.67875004   -3914094.500
 -15.57187462   -3914545.750
 -15.46500015   -3914994.250
 -15.35812473   -3915437.750
 -15.25125027   -3915879.500
 -15.14437485   -3916318.000
 -15.03750038   -3916755.750
 -14.93062496   -3917193.750
 -14.82374954   -3917633.000
 -14.71687508   -3918074.750
 -14.60999966   -3918519.250
 -14.50312519   -3918965.250
 -14.39624977   -3919417.000
 -14.28937531   -3919872.500
 -14.18249989   -3920330.000
 -14.07562542   -3920789.500
 -13.96875000   -3921254.000
 -13.86187458   -3921716.000
 -13.75500011   -3922177.500
 -13.64812469   -3922635.000
 -13.54125023   -3923088.500
 -13.43437481   -3923536.500
 -13.32750034   -3923979.000
 -13.22062492   -3924415.250
 -13.11375046   -3924847.000
 -13.00687504   -3925276.500
 -12.89999962   -3925705.250
 -12.79312515   -3926135.750
 -12.68624973   -3926571.750
 -12.57937527   -3927013.750
 -12.47249985   -3927461.500
 -12.36562538   -3927916.750
 -12.25874996   -3928375.500
 -12.15187454   -3928838.500
 -12.04500008   -3929301.750
 -11.93812466   -3929767.000
 -11.83125019   -3930229.500
 -11.72437477   -3930693.000
 -11.61750031   -3931157.500
 -11.51062489   -3931623.000
 -11.40375042   -3932092.000
 -11.29687500   -3932561.500
 -11.18999958   -3933032.250
 -11.08312511   -3933501.750
 -10.97624969   -3933970.250
 -10.86937523   -3934435.750
 -10.76249981   -3934898.750
 -10.65562534   -3935359.000
 -10.54874992   -3935818.000
 -10.44187546   -3936275.750
 -10.33500004   -3936730.250
 -10.22812462   -3937185.500
 -10.12125015   -3937637.750
 -10.01437473   -3938086.250
 -9.907500267   -3938531.250
 -9.800624847   -3938976.000
 -9.693750381   -3939418.500
 -9.586874962   -3939863.500
 -9.479999542   -3940310.000
 -9.373125076   -3940757.000
 -9.266249657   -3941206.500
 -9.159375191   -3941657.000
 -9.052499771   -3942104.000
 -8.945625305   -3942549.000
 -8.838749886   -3942988.250
 -8.731875420   -3943424.000
 -8.625000000   -3943857.500
 -8.518124580   -3944288.250
 -8.411250114   -3944723.000
 -8.304374695   -3945159.250
 -8.197500229   -3945599.000
 -8.090624809   -3946039.500
 -7.983749866   -3946480.750
 -7.876874924   -3946921.750
 -7.769999981   -3947361.000
 -7.663125038   -3947798.500
 -7.556250095   -3948235.250
 -7.449375153   -3948670.500
 -7.342500210   -3949106.250
 -7.235624790   -3949543.750
 -7.128749847   -3949983.250
 -7.021874905   -3950423.750
 -6.914999962   -3950866.750
 -6.808125019   -3951314.500
 -6.701250076   -3951765.250
 -6.594375134   -3952219.750
 -6.487500191   -3952674.500
 -6.380624771   -3953129.250
 -6.273749828   -3953581.500
 -6.166874886   -3954027.750
 -6.059999943   -3954468.250
 -5.953125000   -3954898.250
 -5.846250057   -3955321.500
 -5.739375114   -3955738.250
 -5.632500172   -3956152.000
 -5.525625229   -3956566.000
 -5.418749809   -3956980.750
 -5.311874866   -3957398.750
 -5.204999924   -3957821.750
 -5.098124981   -3958251.000
 -4.991250038   -3958683.750
 -4.884375095   -3959122.500
 -4.777500153   -3959566.750
 -4.670625210   -3960013.250
 -4.563749790   -3960465.250
 -4.456874847   -3960917.750
 -4.349999905   -3961370.500
 -4.243124962   -3961820.000
 -4.136250019   -3962267.000
 -4.029375076   -3962705.750
 -3.922499895   -3963138.500
 -3.815624952   -3963566.500
 -3.708750010   -3963987.750
 -3.601875067   -3964406.500
 -3.494999886   -3964826.250
 -3.388124943   -3965248.750
 -3.281250000   -3965673.750
 -3.174375057   -3966107.000
 -3.067500114   -3966545.500
 -2.960624933   -3966991.500
 -2.853749990   -3967445.250
 -2.746875048   -3967902.750
 -2.640000105   -3968365.250
 -2.533124924   -3968831.250
 -2.426249981   -3969295.000
 -2.319375038   -3969755.500
 -2.212500095   -3970214.000
 -2.105624914   -3970664.000
 -1.998749971   -3971107.500
 -1.891875029   -3971542.500
 -1.784999967   -3971971.750
 -1.678125024   -3972392.750
 -1.571249962   -3972813.250
 -1.464375019   -3973230.500
 -1.357499957   -3973650.250
 -1.250625014   -3974072.750
 -1.143749952   -3974504.500
 -1.036875010   -3974943.250
 -0.9300000072   -3975391.000
 -0.8231250048   -3975845.750
 -0.7162500024   -3976307.500
 -0.6093750000   -3976774.000
 -0.5024999976   -3977240.000
 -0.3956249952   -3977703.500
 -0.2887499928   -3978163.000
 -0.1818750054   -3978618.250
 -0.7500000298E-01   -3979068.250
 0.3187499940E-01   -3979515.000
 0.1387500018   -3979957.250
 0.2456250042   -3980399.000
 0.3524999917   -3980842.500
 0.4593749940   -3981284.000
 0.5662500262   -3981727.000
 0.6731250286   -3982167.000
 0.7799999714   -3982607.500
 0.8868749738   -3983048.750
 0.9937499762   -3983488.250
 1.100625038   -3983928.000
 1.207499981   -3984370.000
 1.314375043   -3984813.500
 1.421249986   -3985256.500
 1.528125048   -3985702.500
 1.634999990   -3986147.000
 1.741875052   -3986592.250
 1.848749995   -3987037.500
 1.955625057   -3987484.500
