 -30.00000000   9252365.000
 -29.89312553   9253430.000
 -29.78624916   9254496.000
 -29.67937469   9255560.000
 -29.57250023   9256627.000
 -29.46562576   9257693.000
 -29.35874939   9258757.000
 -29.25187492   9259821.000
 -29.14500046   9260886.000
 -29.03812408   9261949.000
 -28.93124962   9263013.000
 -28.82437515   9264078.000
 -28.71750069   9265143.000
 -28.61062431   9266208.000
 -28.50374985   9267276.000
 -28.39687538   9268343.000
 -28.29000092   9269410.000
 -28.18312454   9270476.000
 -28.07625008   9271542.000
 -27.96937561   9272607.000
 -27.86249924   9273673.000
 -27.75562477   9274737.000
 -27.64875031   9275803.000
 -27.54187584   9276871.000
 -27.43499947   9277939.000
 -27.32812500   9279006.000
 -27.22125053   9280075.000
 -27.11437416   9281142.000
 -27.00749969   9282209.000
 -26.90062523   9283273.000
 -26.79375076   9284336.000
 -26.68687439   9285398.000
 -26.57999992   9286461.000
 -26.47312546   9287527.000
 -26.36624908   9288591.000
 -26.25937462   9289657.000
 -26.15250015   9290725.000
 -26.04562569   9291793.000
 -25.93874931   9292861.000
 -25.83187485   9293929.000
 -25.72500038   9294996.000
 -25.61812592   9296061.000
 -25.51124954   9297126.000
 -25.40437508   9298194.000
 -25.29750061   9299259.000
 -25.19062424   9300327.000
 -25.08374977   9301394.000
 -24.97687531   9302462.000
 -24.87000084   9303531.000
 -24.76312447   9304599.000
 -24.65625000   9305665.000
 -24.54937553   9306734.000
 -24.44249916   9307799.000
 -24.33562469   9308865.000
 -24.22875023   9309929.000
 -24.12187576   9310994.000
 -24.01499939   9312061.000
 -23.90812492   9313128.000
 -23.80125046   9314200.000
 -23.69437408   9315271.000
 -23.58749962   9316343.000
 -23.48062515   9317415.000
 -23.37375069   9318485.000
 -23.26687431   9319553.000
 -23.15999985   9320618.000
 -23.05312538   9321681.000
 -22.94625092   9322744.000
 -22.83937454   9323808.000
 -22.73250008   9324874.000
 -22.62562561   9325943.000
 -22.51874924   9327015.000
 -22.41187477   9328089.000
 -22.30500031   9329162.000
 -22.19812584   9330234.000
 -22.09124947   9331303.000
 -21.98437500   9332368.000
 -21.87750053   9333429.000
 -21.77062416   9334490.000
 -21.66374969   9335551.000
 -21.55687523   9336615.000
 -21.45000076   9337683.000
 -21.34312439   9338754.000
 -21.23624992   9339826.000
 -21.12937546   9340897.000
 -21.02249908   9341969.000
 -20.91562462   9343036.000
 -20.80875015   9344099.000
 -20.70187569   9345160.000
 -20.59499931   9346222.000
 -20.48812485   9347285.000
 -20.38125038   9348350.000
 -20.27437592   9349421.000
 -20.16749954   9350495.000
 -20.06062508   9351570.000
 -19.95375061   9352642.000
 -19.84687424   9353713.000
 -19.73999977   9354778.000
 -19.63312531   9355841.000
 -19.52625084   9356899.000
 -19.41937447   9357959.000
 -19.31250000   9359020.000
 -19.20562553   9360087.000
 -19.09874916   9361157.000
 -18.99187469   9362231.000
 -18.88500023   9363304.000
 -18.77812576   9364378.000
 -18.67124939   9365451.000
 -18.56437492   9366519.000
 -18.45750046   9367583.000
 -18.35062408   9368645.000
 -18.24374962   9369708.000
 -18.13687515   9370772.000
 -18.03000069   9371841.000
 -17.92312431   9372913.000
 -17.81624985   9373987.000
 -17.70937538   9375064.000
 -17.60250092   9376140.000
 -17.49562454   9377216.000
 -17.38875008   9378287.000
 -17.28187561   9379356.000
 -17.17499924   9380423.000
 -17.06812477   9381490.000
 -16.96125031   9382557.000
 -16.85437584   9383627.000
 -16.74749947   9384699.000
 -16.64062500   9385774.000
 -16.53375053   9386851.000
 -16.42687416   9387928.000
 -16.31999969   9389005.000
 -16.21312523   9390079.000
 -16.10625076   9391152.000
 -15.99937534   9392225.000
 -15.89249992   9393297.000
 -15.78562546   9394369.000
 -15.67875004   9395441.000
 -15.57187462   9396516.000
 -15.46500015   9397593.000
 -15.35812473   9398669.000
 -15.25125027   9399747.000
 -15.14437485   9400825.000
 -15.03750038   9401901.000
 -14.93062496   9402974.000
 -14.82374954   9404046.000
 -14.71687508   9405114.000
 -14.60999966   9406182.000
 -14.50312519   9407250.000
 -14.39624977   9408318.000
 -14.28937531   9409388.000
 -14.18249989   9410461.000
 -14.07562542   9411535.000
 -13.96875000   9412613.000
 -13.86187458   9413691.000
 -13.75500011   9414768.000
 -13.64812469   9415843.000
 -13.54125023   9416916.000
 -13.43437481   9417988.000
 -13.32750034   9419060.000
 -13.22062492   9420130.000
 -13.11375046   9421202.000
 -13.00687504   9422276.000
 -12.89999962   9423351.000
 -12.79312515   9424424.000
 -12.68624973   9425499.000
 -12.57937527   9426572.000
 -12.47249985   9427645.000
 -12.36562538   9428716.000
 -12.25874996   9429785.000
 -12.15187454   9430854.000
 -12.04500008   9431925.000
 -11.93812466   9432998.000
 -11.83125019   9434069.000
 -11.72437477   9435140.000
 -11.61750031   9436210.000
 -11.51062489   9437279.000
 -11.40375042   9438350.000
 -11.29687500   9439419.000
 -11.18999958   9440490.000
 -11.08312511   9441559.000
 -10.97624969   9442630.000
 -10.86937523   9443701.000
 -10.76249981   9444773.000
 -10.65562534   9445845.000
 -10.54874992   9446916.000
 -10.44187546   9447987.000
 -10.33500004   9449057.000
 -10.22812462   9450127.000
 -10.12125015   9451195.000
 -10.01437473   9452267.000
 -9.907500267   9453339.000
 -9.800624847   9454410.000
 -9.693750381   9455483.000
 -9.586874962   9456555.000
 -9.479999542   9457626.000
 -9.373125076   9458698.000
 -9.266249657   9459769.000
 -9.159375191   9460842.000
 -9.052499771   9461914.000
 -8.945625305   9462986.000
 -8.838749886   9464057.000
 -8.731875420   9465127.000
 -8.625000000   9466195.000
 -8.518124580   9467263.000
 -8.411250114   9468329.000
 -8.304374695   9469396.000
 -8.197500229   9470467.000
 -8.090624809   9471540.000
 -7.983749866   9472618.000
 -7.876874924   9473699.000
 -7.769999981   9474782.000
 -7.663125038   9475863.000
 -7.556250095   9476941.000
 -7.449375153   9478015.000
 -7.342500210   9479082.000
 -7.235624790   9480145.000
 -7.128749847   9481205.000
 -7.021874905   9482266.000
 -6.914999962   9483328.000
 -6.808125019   9484394.000
 -6.701250076   9485466.000
 -6.594375134   9486538.000
 -6.487500191   9487613.000
 -6.380624771   9488690.000
 -6.273749828   9489760.000
 -6.166874886   9490831.000
 -6.059999943   9491898.000
 -5.953125000   9492964.000
 -5.846250057   9494031.000
 -5.739375114   9495098.000
 -5.632500172   9496168.000
 -5.525625229   9497244.000
 -5.418749809   9498319.000
 -5.311874866   9499398.000
 -5.204999924   9500475.000
 -5.098124981   9501550.000
 -4.991250038   9502625.000
 -4.884375095   9503696.000
 -4.777500153   9504769.000
 -4.670625210   9505839.000
 -4.563749790   9506911.000
 -4.456874847   9507985.000
 -4.349999905   9509061.000
 -4.243124962   9510140.000
 -4.136250019   9511218.000
 -4.029375076   9512294.000
 -3.922499895   9513367.000
 -3.815624952   9514438.000
 -3.708750010   9515507.000
 -3.601875067   9516573.000
 -3.494999886   9517638.000
 -3.388124943   9518707.000
 -3.281250000   9519781.000
 -3.174375057   9520857.000
 -3.067500114   9521940.000
 -2.960624933   9523023.000
 -2.853749990   9524106.000
 -2.746875048   9525188.000
 -2.640000105   9526267.000
 -2.533124924   9527343.000
 -2.426249981   9528417.000
 -2.319375038   9529493.000
 -2.212500095   9530569.000
 -2.105624914   9531649.000
 -1.998749971   9532734.000
 -1.891875029   9533821.000
 -1.784999967   9534909.000
 -1.678125024   9535997.000
 -1.571249962   9537079.000
 -1.464375019   9538159.000
 -1.357499957   9539233.000
 -1.250625014   9540303.000
 -1.143749952   9541374.000
 -1.036875010   9542447.000
 -0.9300000072   9543520.000
 -0.8231250048   9544598.000
 -0.7162500024   9545680.000
 -0.6093750000   9546762.000
 -0.5024999976   9547845.000
 -0.3956249952   9548926.000
 -0.2887499928   9550005.000
 -0.1818750054   9551081.000
 -0.7500000298E-01   9552157.000
 0.3187499940E-01   9553234.000
 0.1387500018   9554314.000
 0.2456250042   9555395.000
 0.3524999917   9556480.000
 0.4593749940   9557566.000
 0.5662500262   9558652.000
 0.6731250286   9559735.000
 0.7799999714   9560816.000
 0.8868749738   9561895.000
 0.9937499762   9562970.000
 1.100625038   9564045.000
 1.207499981   9565120.000
 1.314375043   9566199.000
 1.421249986   9567281.000
 1.528125048   9568365.000
 1.634999990   9569451.000
 1.741875052   9570538.000
 1.848749995   9571623.000
 1.955625057   9572704.000
