 -30.00000000   1618704.500
 -29.89312553   1618892.125
 -29.78624916   1619081.875
 -29.67937469   1619273.750
 -29.57250023   1619467.250
 -29.46562576   1619658.625
 -29.35874939   1619854.250
 -29.25187492   1620047.500
 -29.14500046   1620240.625
 -29.03812408   1620432.125
 -28.93124962   1620622.875
 -28.82437515   1620811.500
 -28.71750069   1620999.000
 -28.61062431   1621185.375
 -28.50374985   1621370.000
 -28.39687538   1621555.625
 -28.29000092   1621740.625
 -28.18312454   1621927.375
 -28.07625008   1622116.375
 -27.96937561   1622305.500
 -27.86249924   1622495.375
 -27.75562477   1622686.875
 -27.64875031   1622879.750
 -27.54187584   1623071.750
 -27.43499947   1623265.375
 -27.32812500   1623458.000
 -27.22125053   1623650.875
 -27.11437416   1623841.875
 -27.00749969   1624032.500
 -26.90062523   1624220.250
 -26.79375076   1624409.625
 -26.68687439   1624595.625
 -26.57999992   1624780.750
 -26.47312546   1624964.375
 -26.36624908   1625148.375
 -26.25937462   1625331.375
 -26.15250015   1625514.875
 -26.04562569   1625698.375
 -25.93874931   1625883.375
 -25.83187485   1626069.875
 -25.72500038   1626257.250
 -25.61812592   1626447.250
 -25.51124954   1626638.250
 -25.40437508   1626829.250
 -25.29750061   1627019.875
 -25.19062424   1627211.125
 -25.08374977   1627400.875
 -24.97687531   1627590.500
 -24.87000084   1627780.000
 -24.76312447   1627969.500
 -24.65625000   1628158.250
 -24.54937553   1628346.000
 -24.44249916   1628534.875
 -24.33562469   1628721.875
 -24.22875023   1628908.000
 -24.12187576   1629094.125
 -24.01499939   1629278.625
 -23.90812492   1629464.125
 -23.80125046   1629646.625
 -23.69437408   1629832.125
 -23.58749962   1630015.750
 -23.48062515   1630202.875
 -23.37375069   1630388.750
 -23.26687431   1630576.000
 -23.15999985   1630764.500
 -23.05312538   1630952.875
 -22.94625092   1631142.375
 -22.83937454   1631331.500
 -22.73250008   1631520.250
 -22.62562561   1631706.500
 -22.51874924   1631892.375
 -22.41187477   1632076.375
 -22.30500031   1632258.625
 -22.19812584   1632440.500
 -22.09124947   1632621.250
 -21.98437500   1632800.375
 -21.87750053   1632978.250
 -21.77062416   1633156.500
 -21.66374969   1633333.750
 -21.55687523   1633511.750
 -21.45000076   1633688.000
 -21.34312439   1633866.500
 -21.23624992   1634045.375
 -21.12937546   1634225.875
 -21.02249908   1634407.250
 -20.91562462   1634590.250
 -20.80875015   1634775.250
 -20.70187569   1634961.625
 -20.59499931   1635147.500
 -20.48812485   1635333.000
 -20.38125038   1635518.500
 -20.27437592   1635703.250
 -20.16749954   1635884.750
 -20.06062508   1636064.750
 -19.95375061   1636242.750
 -19.84687424   1636418.000
 -19.73999977   1636592.125
 -19.63312531   1636764.250
 -19.52625084   1636935.750
 -19.41937447   1637107.250
 -19.31250000   1637278.625
 -19.20562553   1637452.625
 -19.09874916   1637628.000
 -18.99187469   1637805.000
 -18.88500023   1637982.625
 -18.77812576   1638163.500
 -18.67124939   1638347.250
 -18.56437492   1638530.875
 -18.45750046   1638714.500
 -18.35062408   1638898.250
 -18.24374962   1639082.000
 -18.13687515   1639265.500
 -18.03000069   1639446.750
 -17.92312431   1639627.375
 -17.81624985   1639806.000
 -17.70937538   1639984.250
 -17.60250092   1640160.250
 -17.49562454   1640336.375
 -17.38875008   1640512.750
 -17.28187561   1640686.500
 -17.17499924   1640862.875
 -17.06812477   1641038.500
 -16.96125031   1641215.000
 -16.85437584   1641395.750
 -16.74749947   1641577.125
 -16.64062500   1641760.125
 -16.53375053   1641944.500
 -16.42687416   1642132.125
 -16.31999969   1642320.125
 -16.21312523   1642507.500
 -16.10625076   1642694.125
 -15.99937534   1642880.000
 -15.89249992   1643063.375
 -15.78562546   1643243.625
 -15.67875004   1643421.375
 -15.57187462   1643595.250
 -15.46500015   1643767.625
 -15.35812473   1643938.000
 -15.25125027   1644107.875
 -15.14437485   1644278.000
 -15.03750038   1644451.750
 -14.93062496   1644627.625
 -14.82374954   1644807.250
 -14.71687508   1644989.500
 -14.60999966   1645174.375
 -14.50312519   1645361.000
 -14.39624977   1645550.125
 -14.28937531   1645737.625
 -14.18249989   1645925.375
 -14.07562542   1646110.875
 -13.96875000   1646294.250
 -13.86187458   1646475.000
 -13.75500011   1646655.750
 -13.64812469   1646834.125
 -13.54125023   1647010.500
 -13.43437481   1647185.500
 -13.32750034   1647360.000
 -13.22062492   1647534.500
 -13.11375046   1647705.625
 -13.00687504   1647878.875
 -12.89999962   1648051.375
 -12.79312515   1648226.750
 -12.68624973   1648403.000
 -12.57937527   1648581.125
 -12.47249985   1648762.375
 -12.36562538   1648947.125
 -12.25874996   1649131.500
 -12.15187454   1649316.500
 -12.04500008   1649502.875
 -11.93812466   1649687.125
 -11.83125019   1649871.000
 -11.72437477   1650052.750
 -11.61750031   1650233.125
 -11.51062489   1650412.375
 -11.40375042   1650591.000
 -11.29687500   1650767.750
 -11.18999958   1650943.500
 -11.08312511   1651117.125
 -10.97624969   1651289.250
 -10.86937523   1651460.125
 -10.76249981   1651630.625
 -10.65562534   1651802.250
 -10.54874992   1651973.500
 -10.44187546   1652145.750
 -10.33500004   1652321.125
 -10.22812462   1652497.125
 -10.12125015   1652677.750
 -10.01437473   1652860.500
 -9.907500267   1653044.750
 -9.800624847   1653228.875
 -9.693750381   1653416.500
 -9.586874962   1653601.625
 -9.479999542   1653785.000
 -9.373125076   1653966.125
 -9.266249657   1654142.750
 -9.159375191   1654316.125
 -9.052499771   1654485.500
 -8.945625305   1654651.750
 -8.838749886   1654815.625
 -8.731875420   1654981.750
 -8.625000000   1655148.500
 -8.518124580   1655317.250
 -8.411250114   1655491.750
 -8.304374695   1655668.500
 -8.197500229   1655847.375
 -8.090624809   1656029.750
 -7.983749866   1656212.375
 -7.876874924   1656396.875
 -7.769999981   1656580.500
 -7.663125038   1656763.375
 -7.556250095   1656945.875
 -7.449375153   1657127.000
 -7.342500210   1657307.125
 -7.235624790   1657485.250
 -7.128749847   1657661.875
 -7.021874905   1657837.500
 -6.914999962   1658009.625
 -6.808125019   1658178.625
 -6.701250076   1658347.125
 -6.594375134   1658515.250
 -6.487500191   1658683.875
 -6.380624771   1658853.875
 -6.273749828   1659028.125
 -6.166874886   1659204.000
 -6.059999943   1659381.875
 -5.953125000   1659563.000
 -5.846250057   1659746.000
 -5.739375114   1659928.500
 -5.632500172   1660113.250
 -5.525625229   1660296.875
 -5.418749809   1660481.375
 -5.311874866   1660662.875
 -5.204999924   1660845.000
 -5.098124981   1661026.750
 -4.991250038   1661205.000
 -4.884375095   1661381.375
 -4.777500153   1661554.125
 -4.670625210   1661725.375
 -4.563749790   1661894.250
 -4.456874847   1662061.125
 -4.349999905   1662228.750
 -4.243124962   1662396.875
 -4.136250019   1662567.750
 -4.029375076   1662742.000
 -3.922499895   1662921.000
 -3.815624952   1663103.500
 -3.708750010   1663288.625
 -3.601875067   1663475.250
 -3.494999886   1663665.750
 -3.388124943   1663853.750
 -3.281250000   1664041.250
 -3.174375057   1664225.250
 -3.067500114   1664407.875
 -2.960624933   1664588.875
 -2.853749990   1664765.250
 -2.746875048   1664940.375
 -2.640000105   1665113.250
 -2.533124924   1665284.125
 -2.426249981   1665453.750
 -2.319375038   1665622.875
 -2.212500095   1665790.375
 -2.105624914   1665960.625
 -1.998749971   1666130.250
 -1.891875029   1666300.750
 -1.784999967   1666473.750
 -1.678125024   1666647.500
 -1.571249962   1666824.375
 -1.464375019   1667001.875
 -1.357499957   1667183.250
 -1.250625014   1667365.375
 -1.143749952   1667549.000
 -1.036875010   1667732.375
 -0.9300000072   1667916.000
 -0.8231250048   1668097.625
 -0.7162500024   1668277.875
 -0.6093750000   1668454.875
 -0.5024999976   1668629.875
 -0.3956249952   1668800.250
 -0.2887499928   1668970.000
 -0.1818750054   1669137.375
 -0.7500000298E-01   1669304.500
 0.3187499940E-01   1669472.125
 0.1387500018   1669639.250
 0.2456250042   1669809.375
 0.3524999917   1669981.000
 0.4593749940   1670155.500
 0.5662500262   1670332.875
 0.6731250286   1670511.500
 0.7799999714   1670692.250
 0.8868749738   1670871.875
 0.9937499762   1671053.750
 1.100625038   1671232.250
 1.207499981   1671408.500
 1.314375043   1671582.625
 1.421249986   1671754.000
 1.528125048   1671923.625
 1.634999990   1672092.500
 1.741875052   1672260.625
 1.848749995   1672431.250
 1.955625057   1672602.875
