 -30.00000000   -5794000.000
 -29.89312553   -5794663.500
 -29.78624916   -5795325.000
 -29.67937469   -5795983.000
 -29.57250023   -5796642.000
 -29.46562576   -5797299.000
 -29.35874939   -5797955.000
 -29.25187492   -5798611.000
 -29.14500046   -5799269.000
 -29.03812408   -5799927.000
 -28.93124962   -5800585.000
 -28.82437515   -5801244.500
 -28.71750069   -5801906.500
 -28.61062431   -5802567.500
 -28.50374985   -5803230.000
 -28.39687538   -5803892.000
 -28.29000092   -5804553.500
 -28.18312454   -5805217.000
 -28.07625008   -5805878.000
 -27.96937561   -5806536.500
 -27.86249924   -5807195.500
 -27.75562477   -5807852.000
 -27.64875031   -5808508.000
 -27.54187584   -5809160.000
 -27.43499947   -5809814.000
 -27.32812500   -5810466.500
 -27.22125053   -5811119.000
 -27.11437416   -5811771.500
 -27.00749969   -5812424.000
 -26.90062523   -5813079.000
 -26.79375076   -5813734.000
 -26.68687439   -5814389.000
 -26.57999992   -5815049.000
 -26.47312546   -5815708.500
 -26.36624908   -5816368.000
 -26.25937462   -5817028.000
 -26.15250015   -5817689.500
 -26.04562569   -5818350.000
 -25.93874931   -5819012.000
 -25.83187485   -5819669.000
 -25.72500038   -5820326.500
 -25.61812592   -5820982.500
 -25.51124954   -5821636.500
 -25.40437508   -5822287.500
 -25.29750061   -5822939.000
 -25.19062424   -5823589.000
 -25.08374977   -5824240.500
 -24.97687531   -5824889.500
 -24.87000084   -5825538.500
 -24.76312447   -5826188.500
 -24.65625000   -5826839.500
 -24.54937553   -5827492.000
 -24.44249916   -5828145.000
 -24.33562469   -5828799.500
 -24.22875023   -5829455.000
 -24.12187576   -5830110.500
 -24.01499939   -5830767.000
 -23.90812492   -5831423.000
 -23.80125046   -5832078.500
 -23.69437408   -5832735.500
 -23.58749962   -5833389.500
 -23.48062515   -5834043.500
 -23.37375069   -5834694.500
 -23.26687431   -5835343.500
 -23.15999985   -5835990.000
 -23.05312538   -5836636.000
 -22.94625092   -5837280.500
 -22.83937454   -5837924.500
 -22.73250008   -5838567.000
 -22.62562561   -5839210.000
 -22.51874924   -5839854.000
 -22.41187477   -5840501.000
 -22.30500031   -5841149.000
 -22.19812584   -5841799.000
 -22.09124947   -5842450.000
 -21.98437500   -5843104.000
 -21.87750053   -5843759.500
 -21.77062416   -5844414.500
 -21.66374969   -5845069.000
 -21.55687523   -5845722.000
 -21.45000076   -5846375.500
 -21.34312439   -5847025.000
 -21.23624992   -5847673.000
 -21.12937546   -5848319.500
 -21.02249908   -5848965.000
 -20.91562462   -5849608.000
 -20.80875015   -5850252.500
 -20.70187569   -5850896.000
 -20.59499931   -5851539.500
 -20.48812485   -5852186.500
 -20.38125038   -5852832.000
 -20.27437592   -5853480.500
 -20.16749954   -5854129.000
 -20.06062508   -5854778.500
 -19.95375061   -5855428.000
 -19.84687424   -5856078.500
 -19.73999977   -5856728.500
 -19.63312531   -5857378.000
 -19.52625084   -5858030.500
 -19.41937447   -5858681.000
 -19.31250000   -5859333.000
 -19.20562553   -5859985.500
 -19.09874916   -5860637.500
 -18.99187469   -5861290.000
 -18.88500023   -5861938.500
 -18.77812576   -5862587.500
 -18.67124939   -5863231.000
 -18.56437492   -5863874.500
 -18.45750046   -5864516.000
 -18.35062408   -5865157.000
 -18.24374962   -5865797.000
 -18.13687515   -5866439.500
 -18.03000069   -5867084.000
 -17.92312431   -5867731.500
 -17.81624985   -5868382.500
 -17.70937538   -5869037.000
 -17.60250092   -5869693.500
 -17.49562454   -5870349.500
 -17.38875008   -5871006.000
 -17.28187561   -5871662.500
 -17.17499924   -5872313.500
 -17.06812477   -5872965.000
 -16.96125031   -5873614.000
 -16.85437584   -5874262.500
 -16.74749947   -5874908.000
 -16.64062500   -5875553.500
 -16.53375053   -5876197.500
 -16.42687416   -5876843.500
 -16.31999969   -5877488.500
 -16.21312523   -5878136.000
 -16.10625076   -5878781.500
 -15.99937534   -5879429.000
 -15.89249992   -5880073.500
 -15.78562546   -5880719.000
 -15.67875004   -5881364.500
 -15.57187462   -5882010.000
 -15.46500015   -5882658.500
 -15.35812473   -5883306.500
 -15.25125027   -5883957.000
 -15.14437485   -5884609.500
 -15.03750038   -5885263.000
 -14.93062496   -5885917.000
 -14.82374954   -5886572.500
 -14.71687508   -5887226.500
 -14.60999966   -5887879.000
 -14.50312519   -5888530.000
 -14.39624977   -5889179.500
 -14.28937531   -5889824.000
 -14.18249989   -5890468.000
 -14.07562542   -5891109.500
 -13.96875000   -5891750.000
 -13.86187458   -5892390.000
 -13.75500011   -5893031.000
 -13.64812469   -5893672.000
 -13.54125023   -5894315.500
 -13.43437481   -5894961.000
 -13.32750034   -5895609.000
 -13.22062492   -5896257.500
 -13.11375046   -5896909.500
 -13.00687504   -5897562.500
 -12.89999962   -5898214.500
 -12.79312515   -5898865.500
 -12.68624973   -5899517.000
 -12.57937527   -5900164.500
 -12.47249985   -5900811.000
 -12.36562538   -5901452.500
 -12.25874996   -5902094.000
 -12.15187454   -5902731.500
 -12.04500008   -5903371.000
 -11.93812466   -5904010.000
 -11.83125019   -5904649.500
 -11.72437477   -5905289.500
 -11.61750031   -5905932.500
 -11.51062489   -5906575.000
 -11.40375042   -5907218.500
 -11.29687500   -5907862.500
 -11.18999958   -5908504.500
 -11.08312511   -5909146.500
 -10.97624969   -5909789.000
 -10.86937523   -5910432.000
 -10.76249981   -5911073.500
 -10.65562534   -5911716.500
 -10.54874992   -5912360.500
 -10.44187546   -5913005.000
 -10.33500004   -5913652.000
 -10.22812462   -5914296.500
 -10.12125015   -5914941.000
 -10.01437473   -5915584.500
 -9.907500267   -5916226.500
 -9.800624847   -5916863.000
 -9.693750381   -5917497.000
 -9.586874962   -5918130.500
 -9.479999542   -5918760.000
 -9.373125076   -5919389.500
 -9.266249657   -5920021.500
 -9.159375191   -5920654.500
 -9.052499771   -5921289.000
 -8.945625305   -5921927.000
 -8.838749886   -5922565.500
 -8.731875420   -5923207.500
 -8.625000000   -5923849.500
 -8.518124580   -5924494.000
 -8.411250114   -5925138.500
 -8.304374695   -5925782.500
 -8.197500229   -5926425.500
 -8.090624809   -5927068.000
 -7.983749866   -5927708.500
 -7.876874924   -5928348.000
 -7.769999981   -5928985.500
 -7.663125038   -5929620.000
 -7.556250095   -5930253.000
 -7.449375153   -5930885.500
 -7.342500210   -5931516.500
 -7.235624790   -5932146.500
 -7.128749847   -5932777.000
 -7.021874905   -5933409.500
 -6.914999962   -5934044.500
 -6.808125019   -5934680.500
 -6.701250076   -5935317.000
 -6.594375134   -5935958.000
 -6.487500191   -5936597.500
 -6.380624771   -5937238.500
 -6.273749828   -5937877.500
 -6.166874886   -5938517.500
 -6.059999943   -5939155.000
 -5.953125000   -5939793.000
 -5.846250057   -5940428.000
 -5.739375114   -5941062.500
 -5.632500172   -5941697.500
 -5.525625229   -5942332.500
 -5.418749809   -5942966.000
 -5.311874866   -5943600.000
 -5.204999924   -5944229.000
 -5.098124981   -5944859.500
 -4.991250038   -5945488.000
 -4.884375095   -5946115.500
 -4.777500153   -5946745.500
 -4.670625210   -5947375.000
 -4.563749790   -5948011.000
 -4.456874847   -5948646.000
 -4.349999905   -5949285.500
 -4.243124962   -5949926.500
 -4.136250019   -5950568.500
 -4.029375076   -5951211.000
 -3.922499895   -5951853.000
 -3.815624952   -5952492.500
 -3.708750010   -5953131.500
 -3.601875067   -5953767.500
 -3.494999886   -5954402.000
 -3.388124943   -5955035.500
 -3.281250000   -5955668.500
 -3.174375057   -5956300.000
 -3.067500114   -5956931.500
 -2.960624933   -5957559.000
 -2.853749990   -5958188.500
 -2.746875048   -5958815.000
 -2.640000105   -5959443.000
 -2.533124924   -5960069.000
 -2.426249981   -5960697.500
 -2.319375038   -5961329.000
 -2.212500095   -5961964.000
 -2.105624914   -5962601.500
 -1.998749971   -5963239.500
 -1.891875029   -5963880.500
 -1.784999967   -5964521.000
 -1.678125024   -5965162.000
 -1.571249962   -5965799.000
 -1.464375019   -5966433.000
 -1.357499957   -5967063.500
 -1.250625014   -5967693.000
 -1.143749952   -5968320.000
 -1.036875010   -5968943.500
 -0.9300000072   -5969570.500
 -0.8231250048   -5970197.000
 -0.7162500024   -5970823.500
 -0.6093750000   -5971454.000
 -0.5024999976   -5972084.500
 -0.3956249952   -5972718.500
 -0.2887499928   -5973353.000
 -0.1818750054   -5973988.000
 -0.7500000298E-01   -5974625.000
 0.3187499940E-01   -5975261.000
 0.1387500018   -5975897.500
 0.2456250042   -5976535.000
 0.3524999917   -5977170.000
 0.4593749940   -5977805.500
 0.5662500262   -5978439.000
 0.6731250286   -5979073.000
 0.7799999714   -5979704.500
 0.8868749738   -5980333.000
 0.9937499762   -5980962.000
 1.100625038   -5981587.500
 1.207499981   -5982209.500
 1.314375043   -5982831.500
 1.421249986   -5983451.500
 1.528125048   -5984069.500
 1.634999990   -5984690.500
 1.741875052   -5985314.500
 1.848749995   -5985939.500
 1.955625057   -5986570.000
