 -30.00000000   7905467.500
 -29.89312553   7906387.000
 -29.78624916   7907310.500
 -29.67937469   7908239.500
 -29.57250023   7909165.000
 -29.46562576   7910088.000
 -29.35874939   7911004.000
 -29.25187492   7911915.500
 -29.14500046   7912826.000
 -29.03812408   7913737.500
 -28.93124962   7914654.000
 -28.82437515   7915580.000
 -28.71750069   7916511.500
 -28.61062431   7917448.000
 -28.50374985   7918386.000
 -28.39687538   7919322.000
 -28.29000092   7920248.500
 -28.18312454   7921169.000
 -28.07625008   7922081.000
 -27.96937561   7922986.500
 -27.86249924   7923892.500
 -27.75562477   7924803.500
 -27.64875031   7925721.000
 -27.54187584   7926648.000
 -27.43499947   7927580.500
 -27.32812500   7928516.000
 -27.22125053   7929445.500
 -27.11437416   7930365.500
 -27.00749969   7931272.500
 -26.90062523   7932168.500
 -26.79375076   7933056.500
 -26.68687439   7933940.500
 -26.57999992   7934829.000
 -26.47312546   7935726.500
 -26.36624908   7936633.500
 -26.25937462   7937549.500
 -26.15250015   7938470.000
 -26.04562569   7939392.000
 -25.93874931   7940308.500
 -25.83187485   7941215.500
 -25.72500038   7942115.500
 -25.61812592   7943008.500
 -25.51124954   7943901.000
 -25.40437508   7944797.000
 -25.29750061   7945697.000
 -25.19062424   7946604.500
 -25.08374977   7947519.000
 -24.97687531   7948434.500
 -24.87000084   7949346.500
 -24.76312447   7950253.000
 -24.65625000   7951151.500
 -24.54937553   7952047.000
 -24.44249916   7952938.000
 -24.33562469   7953832.000
 -24.22875023   7954734.000
 -24.12187576   7955648.000
 -24.01499939   7956572.000
 -23.90812492   7957503.500
 -23.80125046   7958440.500
 -23.69437408   7959378.500
 -23.58749962   7960312.000
 -23.48062515   7961239.000
 -23.37375069   7962159.000
 -23.26687431   7963075.500
 -23.15999985   7963989.000
 -23.05312538   7964905.000
 -22.94625092   7965825.000
 -22.83937454   7966750.500
 -22.73250008   7967679.500
 -22.62562561   7968610.000
 -22.51874924   7969539.500
 -22.41187477   7970465.500
 -22.30500031   7971386.000
 -22.19812584   7972301.000
 -22.09124947   7973212.500
 -21.98437500   7974124.500
 -21.87750053   7975036.500
 -21.77062416   7975951.000
 -21.66374969   7976870.000
 -21.55687523   7977787.500
 -21.45000076   7978704.000
 -21.34312439   7979618.500
 -21.23624992   7980527.500
 -21.12937546   7981431.500
 -21.02249908   7982333.000
 -20.91562462   7983231.500
 -20.80875015   7984135.500
 -20.70187569   7985040.500
 -20.59499931   7985951.000
 -20.48812485   7986866.500
 -20.38125038   7987784.500
 -20.27437592   7988703.500
 -20.16749954   7989622.000
 -20.06062508   7990534.500
 -19.95375061   7991446.000
 -19.84687424   7992353.000
 -19.73999977   7993257.500
 -19.63312531   7994162.000
 -19.52625084   7995062.500
 -19.41937447   7995963.500
 -19.31250000   7996861.000
 -19.20562553   7997761.000
 -19.09874916   7998657.500
 -18.99187469   7999557.500
 -18.88500023   8000458.000
 -18.77812576   8001361.000
 -18.67124939   8002268.500
 -18.56437492   8003179.500
 -18.45750046   8004093.500
 -18.35062408   8005009.000
 -18.24374962   8005928.500
 -18.13687515   8006847.500
 -18.03000069   8007768.000
 -17.92312431   8008691.500
 -17.81624985   8009614.500
 -17.70937538   8010541.500
 -17.60250092   8011471.500
 -17.49562454   8012403.000
 -17.38875008   8013334.500
 -17.28187561   8014261.500
 -17.17499924   8015184.500
 -17.06812477   8016102.000
 -16.96125031   8017014.000
 -16.85437584   8017924.500
 -16.74749947   8018834.500
 -16.64062500   8019749.000
 -16.53375053   8020669.500
 -16.42687416   8021596.000
 -16.31999969   8022527.000
 -16.21312523   8023459.000
 -16.10625076   8024387.000
 -15.99937534   8025307.500
 -15.89249992   8026221.000
 -15.78562546   8027130.500
 -15.67875004   8028036.500
 -15.57187462   8028943.000
 -15.46500015   8029858.500
 -15.35812473   8030782.500
 -15.25125027   8031713.000
 -15.14437485   8032648.000
 -15.03750038   8033581.500
 -14.93062496   8034511.500
 -14.82374954   8035437.000
 -14.71687508   8036353.500
 -14.60999966   8037265.000
 -14.50312519   8038177.000
 -14.39624977   8039092.000
 -14.28937531   8040014.000
 -14.18249989   8040942.500
 -14.07562542   8041876.500
 -13.96875000   8042813.000
 -13.86187458   8043748.000
 -13.75500011   8044673.500
 -13.64812469   8045591.000
 -13.54125023   8046499.500
 -13.43437481   8047403.000
 -13.32750034   8048304.000
 -13.22062492   8049209.000
 -13.11375046   8050120.500
 -13.00687504   8051039.000
 -12.89999962   8051965.500
 -12.79312515   8052896.000
 -12.68624973   8053823.000
 -12.57937527   8054743.500
 -12.47249985   8055655.000
 -12.36562538   8056555.000
 -12.25874996   8057446.500
 -12.15187454   8058333.500
 -12.04500008   8059222.500
 -11.93812466   8060116.000
 -11.83125019   8061020.500
 -11.72437477   8061934.500
 -11.61750031   8062853.500
 -11.51062489   8063775.500
 -11.40375042   8064693.500
 -11.29687500   8065603.500
 -11.18999958   8066507.000
 -11.08312511   8067403.500
 -10.97624969   8068293.500
 -10.86937523   8069185.000
 -10.76249981   8070083.000
 -10.65562534   8070987.500
 -10.54874992   8071901.000
 -10.44187546   8072821.000
 -10.33500004   8073740.500
 -10.22812462   8074657.000
 -10.12125015   8075564.000
 -10.01437473   8076460.000
 -9.907500267   8077346.500
 -9.800624847   8078228.500
 -9.693750381   8079111.500
 -9.586874962   8080002.500
 -9.479999542   8080902.500
 -9.373125076   8081816.000
 -9.266249657   8082736.000
 -9.159375191   8083661.000
 -9.052499771   8084583.500
 -8.945625305   8085496.500
 -8.838749886   8086400.500
 -8.731875420   8087296.500
 -8.625000000   8088188.000
 -8.518124580   8089086.000
 -8.411250114   8089990.500
 -8.304374695   8090906.500
 -8.197500229   8091835.000
 -8.090624809   8092771.000
 -7.983749866   8093708.000
 -7.876874924   8094640.000
 -7.769999981   8095559.000
 -7.663125038   8096469.500
 -7.556250095   8097371.000
 -7.449375153   8098269.500
 -7.342500210   8099172.000
 -7.235624790   8100082.500
 -7.128749847   8101003.500
 -7.021874905   8101935.500
 -6.914999962   8102874.500
 -6.808125019   8103812.000
 -6.701250076   8104745.500
 -6.594375134   8105667.000
 -6.487500191   8106578.500
 -6.380624771   8107483.000
 -6.273749828   8108381.500
 -6.166874886   8109282.000
 -6.059999943   8110191.000
 -5.953125000   8111104.000
 -5.846250057   8112027.500
 -5.739375114   8112956.500
 -5.632500172   8113885.000
 -5.525625229   8114812.000
 -5.418749809   8115731.000
 -5.311874866   8116641.500
 -5.204999924   8117548.000
 -5.098124981   8118449.000
 -4.991250038   8119352.000
 -4.884375095   8120258.000
 -4.777500153   8121171.000
 -4.670625210   8122090.500
 -4.563749790   8123013.500
 -4.456874847   8123937.500
 -4.349999905   8124858.000
 -4.243124962   8125772.500
 -4.136250019   8126681.000
 -4.029375076   8127582.500
 -3.922499895   8128481.000
 -3.815624952   8129381.500
 -3.708750010   8130285.500
 -3.601875067   8131196.000
 -3.494999886   8132112.000
 -3.388124943   8133036.500
 -3.281250000   8133961.500
 -3.174375057   8134886.500
 -3.067500114   8135807.500
 -2.960624933   8136723.000
 -2.853749990   8137632.500
 -2.746875048   8138536.500
 -2.640000105   8139439.000
 -2.533124924   8140343.500
 -2.426249981   8141250.000
 -2.319375038   8142165.500
 -2.212500095   8143086.000
 -2.105624914   8144011.500
 -1.998749971   8144941.000
 -1.891875029   8145868.000
 -1.784999967   8146790.500
 -1.678125024   8147705.500
 -1.571249962   8148615.500
 -1.464375019   8149520.000
 -1.357499957   8150424.000
 -1.250625014   8151329.000
 -1.143749952   8152243.000
 -1.036875010   8153159.500
 -0.9300000072   8154083.000
 -0.8231250048   8155013.500
 -0.7162500024   8155943.000
 -0.6093750000   8156868.000
 -0.5024999976   8157789.500
 -0.3956249952   8158704.500
 -0.2887499928   8159615.000
 -0.1818750054   8160523.500
 -0.7500000298E-01   8161432.500
 0.3187499940E-01   8162348.000
 0.1387500018   8163270.500
 0.2456250042   8164200.000
 0.3524999917   8165133.500
 0.4593749940   8166070.000
 0.5662500262   8167003.500
 0.6731250286   8167931.000
 0.7799999714   8168850.500
 0.8868749738   8169767.000
 0.9937499762   8170680.000
 1.100625038   8171593.000
 1.207499981   8172509.000
 1.314375043   8173429.500
 1.421249986   8174356.000
 1.528125048   8175291.000
 1.634999990   8176224.500
 1.741875052   8177159.000
 1.848749995   8178091.000
 1.955625057   8179015.500
