 -30.00000000   297685.6250
 -29.89312553   297730.9062
 -29.78624916   297783.2812
 -29.67937469   297845.2500
 -29.57250023   297912.6250
 -29.46562576   297985.3750
 -29.35874939   298059.2188
 -29.25187492   298133.7188
 -29.14500046   298205.6562
 -29.03812408   298274.0000
 -28.93124962   298337.0938
 -28.82437515   298392.1250
 -28.71750069   298439.5938
 -28.61062431   298484.2812
 -28.50374985   298522.0625
 -28.39687538   298557.6250
 -28.29000092   298591.8125
 -28.18312454   298630.5625
 -28.07625008   298671.5000
 -27.96937561   298721.9375
 -27.86249924   298778.2188
 -27.75562477   298846.9688
 -27.64875031   298925.4375
 -27.54187584   299011.3750
 -27.43499947   299106.5938
 -27.32812500   299208.2500
 -27.22125053   299310.9688
 -27.11437416   299411.4062
 -27.00749969   299511.4062
 -26.90062523   299604.0625
 -26.79375076   299685.9688
 -26.68687439   299759.3125
 -26.57999992   299819.1562
 -26.47312546   299869.2188
 -26.36624908   299908.2812
 -26.25937462   299938.8750
 -26.15250015   299965.8750
 -26.04562569   299988.0312
 -25.93874931   300012.9375
 -25.83187485   300041.6562
 -25.72500038   300076.3750
 -25.61812592   300121.9062
 -25.51124954   300177.5625
 -25.40437508   300243.0938
 -25.29750061   300320.1875
 -25.19062424   300405.7500
 -25.08374977   300497.4062
 -24.97687531   300595.7812
 -24.87000084   300695.8750
 -24.76312447   300792.4688
 -24.65625000   300885.8750
 -24.54937553   300971.4062
 -24.44249916   301046.6875
 -24.33562469   301110.7812
 -24.22875023   301162.5625
 -24.12187576   301202.3438
 -24.01499939   301235.8125
 -23.90812492   301261.9062
 -23.80125046   301287.2500
 -23.69437408   301316.4062
 -23.58749962   301348.4062
 -23.48062515   301390.0625
 -23.37375069   301442.8438
 -23.26687431   301505.5000
 -23.15999985   301579.0000
 -23.05312538   301659.3750
 -22.94625092   301746.2812
 -22.83937454   301837.5625
 -22.73250008   301929.4375
 -22.62562561   302017.4688
 -22.51874924   302100.4688
 -22.41187477   302176.0000
 -22.30500031   302238.3125
 -22.19812584   302288.9375
 -22.09124947   302327.3125
 -21.98437500   302353.3750
 -21.87750053   302371.6562
 -21.77062416   302383.5938
 -21.66374969   302392.2812
 -21.55687523   302405.3438
 -21.45000076   302423.7188
 -21.34312439   302452.4062
 -21.23624992   302493.0000
 -21.12937546   302546.6562
 -21.02249908   302613.8750
 -20.91562462   302694.0625
 -20.80875015   302780.1562
 -20.70187569   302873.3438
 -20.59499931   302964.2500
 -20.48812485   303053.1562
 -20.38125038   303132.4688
 -20.27437592   303201.5625
 -20.16749954   303257.8438
 -20.06062508   303300.9375
 -19.95375061   303331.3750
 -19.84687424   303349.5938
 -19.73999977   303360.0000
 -19.63312531   303363.5000
 -19.52625084   303367.0625
 -19.41937447   303373.0312
 -19.31250000   303385.7500
 -19.20562553   303408.0312
 -19.09874916   303441.1562
 -18.99187469   303487.6875
 -18.88500023   303545.9062
 -18.77812576   303616.6250
 -18.67124939   303698.2500
 -18.56437492   303785.7500
 -18.45750046   303876.6250
 -18.35062408   303965.5312
 -18.24374962   304048.7188
 -18.13687515   304124.3438
 -18.03000069   304188.7812
 -17.92312431   304242.3438
 -17.81624985   304281.9062
 -17.70937538   304310.7812
 -17.60250092   304330.4688
 -17.49562454   304342.1562
 -17.38875008   304350.0000
 -17.28187561   304355.0625
 -17.17499924   304362.9062
 -17.06812477   304376.4375
 -16.96125031   304399.1875
 -16.85437584   304432.0938
 -16.74749947   304476.0625
 -16.64062500   304531.5625
 -16.53375053   304599.1562
 -16.42687416   304676.9375
 -16.31999969   304760.0938
 -16.21312523   304845.3750
 -16.10625076   304929.8125
 -15.99937534   305009.4062
 -15.89249992   305079.6250
 -15.78562546   305137.8438
 -15.67875004   305184.2812
 -15.57187462   305216.4062
 -15.46500015   305237.4375
 -15.35812473   305246.2188
 -15.25125027   305248.7500
 -15.14437485   305249.1562
 -15.03750038   305246.6562
 -14.93062496   305250.7812
 -14.82374954   305260.1250
 -14.71687508   305282.2188
 -14.60999966   305315.1562
 -14.50312519   305360.9375
 -14.39624977   305419.0625
 -14.28937531   305487.2500
 -14.18249989   305563.9375
 -14.07562542   305643.6875
 -13.96875000   305724.8750
 -13.86187458   305800.5625
 -13.75500011   305869.6250
 -13.64812469   305927.1562
 -13.54125023   305972.5625
 -13.43437481   306002.6875
 -13.32750034   306023.4688
 -13.22062492   306033.2500
 -13.11375046   306036.5312
 -13.00687504   306035.7812
 -12.89999962   306038.2812
 -12.79312515   306046.0312
 -12.68624973   306062.2812
 -12.57937527   306090.7812
 -12.47249985   306133.6250
 -12.36562538   306187.6875
 -12.25874996   306252.7188
 -12.15187454   306325.0938
 -12.04500008   306400.5938
 -11.93812466   306479.0000
 -11.83125019   306554.4688
 -11.72437477   306626.7812
 -11.61750031   306691.7812
 -11.51062489   306744.3750
 -11.40375042   306787.9375
 -11.29687500   306822.8438
 -11.18999958   306845.5625
 -11.08312511   306859.2500
 -10.97624969   306867.9062
 -10.86937523   306868.7812
 -10.76249981   306870.8125
 -10.65562534   306873.8438
 -10.54874992   306884.0625
 -10.44187546   306901.0312
 -10.33500004   306926.2812
 -10.22812462   306963.9062
 -10.12125015   307007.5938
 -10.01437473   307061.1875
 -9.907500267   307120.3750
 -9.800624847   307183.1875
 -9.693750381   307248.1562
 -9.586874962   307314.0000
 -9.479999542   307379.1250
 -9.373125076   307438.1562
 -9.266249657   307493.3750
 -9.159375191   307542.2812
 -9.052499771   307584.2500
 -8.945625305   307617.7812
 -8.838749886   307646.7188
 -8.731875420   307669.0938
 -8.625000000   307688.8438
 -8.518124580   307706.0312
 -8.411250114   307722.7188
 -8.304374695   307740.5938
 -8.197500229   307765.8750
 -8.090624809   307794.0625
 -7.983749866   307830.5000
 -7.876874924   307875.8750
 -7.769999981   307927.4062
 -7.663125038   307988.2500
 -7.556250095   308057.1875
 -7.449375153   308130.7500
 -7.342500210   308206.7812
 -7.235624790   308282.5000
 -7.128749847   308352.2812
 -7.021874905   308418.5938
 -6.914999962   308475.0312
 -6.808125019   308520.2500
 -6.701250076   308557.0938
 -6.594375134   308581.7188
 -6.487500191   308599.0625
 -6.380624771   308609.0938
 -6.273749828   308617.3438
 -6.166874886   308625.8125
 -6.059999943   308636.7188
 -5.953125000   308655.5625
 -5.846250057   308682.8438
 -5.739375114   308719.1875
 -5.632500172   308765.9688
 -5.525625229   308822.7188
 -5.418749809   308888.5938
 -5.311874866   308958.9062
 -5.204999924   309033.7188
 -5.098124981   309107.5625
 -4.991250038   309178.7500
 -4.884375095   309244.5312
 -4.777500153   309303.9688
 -4.670625210   309353.8125
 -4.563749790   309397.8750
 -4.456874847   309430.1250
 -4.349999905   309453.8125
 -4.243124962   309471.5312
 -4.136250019   309484.4062
 -4.029375076   309492.9688
 -3.922499895   309502.4688
 -3.815624952   309516.2188
 -3.708750010   309534.8125
 -3.601875067   309563.6250
 -3.494999886   309601.2500
 -3.388124943   309649.9062
 -3.281250000   309705.7188
 -3.174375057   309770.1562
 -3.067500114   309839.5000
 -2.960624933   309909.9062
 -2.853749990   309977.6875
 -2.746875048   310042.3438
 -2.640000105   310099.5000
 -2.533124924   310150.2188
 -2.426249981   310195.9375
 -2.319375038   310231.3750
 -2.212500095   310260.3438
 -2.105624914   310282.9688
 -1.998749971   310299.6875
 -1.891875029   310314.5312
 -1.784999967   310328.5312
 -1.678125024   310343.0312
 -1.571249962   310361.8750
 -1.464375019   310386.8125
 -1.357499957   310418.2188
 -1.250625014   310458.4062
 -1.143749952   310508.8125
 -1.036875010   310566.6250
 -0.9300000072   310632.0938
 -0.8231250048   310702.0000
 -0.7162500024   310775.1562
 -0.6093750000   310848.2188
 -0.5024999976   310918.4062
 -0.3956249952   310985.9062
 -0.2887499928   311046.3750
 -0.1818750054   311100.0000
 -0.7500000298E-01   311144.2812
 0.3187499940E-01   311177.6250
 0.1387500018   311206.5312
 0.2456250042   311226.9688
 0.3524999917   311241.6875
 0.4593749940   311254.5938
 0.5662500262   311266.1562
 0.6731250286   311282.2188
 0.7799999714   311303.8125
 0.8868749738   311332.4062
 0.9937499762   311372.8750
 1.100625038   311424.6250
 1.207499981   311485.5625
 1.314375043   311556.9062
 1.421249986   311634.2188
 1.528125048   311714.9375
 1.634999990   311794.9688
 1.741875052   311868.6875
 1.848749995   311932.9062
 1.955625057   311987.8438
