 -30.00000000   -7694923.500
 -29.89312553   -7695798.000
 -29.78624916   -7696663.000
 -29.67937469   -7697519.500
 -29.57250023   -7698368.500
 -29.46562576   -7699216.000
 -29.35874939   -7700062.500
 -29.25187492   -7700907.500
 -29.14500046   -7701756.500
 -29.03812408   -7702614.000
 -28.93124962   -7703478.500
 -28.82437515   -7704351.000
 -28.71750069   -7705229.000
 -28.61062431   -7706113.000
 -28.50374985   -7707000.000
 -28.39687538   -7707886.500
 -28.29000092   -7708771.500
 -28.18312454   -7709650.500
 -28.07625008   -7710526.500
 -27.96937561   -7711395.500
 -27.86249924   -7712258.000
 -27.75562477   -7713114.500
 -27.64875031   -7713966.000
 -27.54187584   -7714816.000
 -27.43499947   -7715661.500
 -27.32812500   -7716506.500
 -27.22125053   -7717352.000
 -27.11437416   -7718197.000
 -27.00749969   -7719045.500
 -26.90062523   -7719897.000
 -26.79375076   -7720750.000
 -26.68687439   -7721609.000
 -26.57999992   -7722471.000
 -26.47312546   -7723337.500
 -26.36624908   -7724208.500
 -26.25937462   -7725085.000
 -26.15250015   -7725965.000
 -26.04562569   -7726847.000
 -25.93874931   -7727734.000
 -25.83187485   -7728619.000
 -25.72500038   -7729503.500
 -25.61812592   -7730385.500
 -25.51124954   -7731260.500
 -25.40437508   -7732130.500
 -25.29750061   -7732992.000
 -25.19062424   -7733848.500
 -25.08374977   -7734697.000
 -24.97687531   -7735540.500
 -24.87000084   -7736386.000
 -24.76312447   -7737232.000
 -24.65625000   -7738084.000
 -24.54937553   -7738941.500
 -24.44249916   -7739806.500
 -24.33562469   -7740682.500
 -24.22875023   -7741564.000
 -24.12187576   -7742450.500
 -24.01499939   -7743343.000
 -23.90812492   -7744235.500
 -23.80125046   -7745126.000
 -23.69437408   -7746012.500
 -23.58749962   -7746892.500
 -23.48062515   -7747764.000
 -23.37375069   -7748629.000
 -23.26687431   -7749483.500
 -23.15999985   -7750334.000
 -23.05312538   -7751177.500
 -22.94625092   -7752020.500
 -22.83937454   -7752862.000
 -22.73250008   -7753709.000
 -22.62562561   -7754559.500
 -22.51874924   -7755418.500
 -22.41187477   -7756284.500
 -22.30500031   -7757158.000
 -22.19812584   -7758039.500
 -22.09124947   -7758925.000
 -21.98437500   -7759813.000
 -21.87750053   -7760701.000
 -21.77062416   -7761587.000
 -21.66374969   -7762469.000
 -21.55687523   -7763347.000
 -21.45000076   -7764218.000
 -21.34312439   -7765084.500
 -21.23624992   -7765946.000
 -21.12937546   -7766802.500
 -21.02249908   -7767658.500
 -20.91562462   -7768509.000
 -20.80875015   -7769361.000
 -20.70187569   -7770213.500
 -20.59499931   -7771068.500
 -20.48812485   -7771927.000
 -20.38125038   -7772787.500
 -20.27437592   -7773652.500
 -20.16749954   -7774520.500
 -20.06062508   -7775392.500
 -19.95375061   -7776266.500
 -19.84687424   -7777140.500
 -19.73999977   -7778017.000
 -19.63312531   -7778889.000
 -19.52625084   -7779761.000
 -19.41937447   -7780628.000
 -19.31250000   -7781491.500
 -19.20562553   -7782353.000
 -19.09874916   -7783212.000
 -18.99187469   -7784068.500
 -18.88500023   -7784924.000
 -18.77812576   -7785778.000
 -18.67124939   -7786632.500
 -18.56437492   -7787490.000
 -18.45750046   -7788347.500
 -18.35062408   -7789209.000
 -18.24374962   -7790071.000
 -18.13687515   -7790935.000
 -18.03000069   -7791799.500
 -17.92312431   -7792664.500
 -17.81624985   -7793532.000
 -17.70937538   -7794400.500
 -17.60250092   -7795274.000
 -17.49562454   -7796149.000
 -17.38875008   -7797027.500
 -17.28187561   -7797908.000
 -17.17499924   -7798786.500
 -17.06812477   -7799664.000
 -16.96125031   -7800538.000
 -16.85437584   -7801407.500
 -16.74749947   -7802272.500
 -16.64062500   -7803131.000
 -16.53375053   -7803986.000
 -16.42687416   -7804836.000
 -16.31999969   -7805684.000
 -16.21312523   -7806530.500
 -16.10625076   -7807378.000
 -15.99937534   -7808225.500
 -15.89249992   -7809077.000
 -15.78562546   -7809932.000
 -15.67875004   -7810789.500
 -15.57187462   -7811654.500
 -15.46500015   -7812523.500
 -15.35812473   -7813398.500
 -15.25125027   -7814279.500
 -15.14437485   -7815163.500
 -15.03750038   -7816048.000
 -14.93062496   -7816933.500
 -14.82374954   -7817815.500
 -14.71687508   -7818693.500
 -14.60999966   -7819564.000
 -14.50312519   -7820429.000
 -14.39624977   -7821287.000
 -14.28937531   -7822139.000
 -14.18249989   -7822987.000
 -14.07562542   -7823833.000
 -13.96875000   -7824676.500
 -13.86187458   -7825521.000
 -13.75500011   -7826368.000
 -13.64812469   -7827217.000
 -13.54125023   -7828071.000
 -13.43437481   -7828928.000
 -13.32750034   -7829794.000
 -13.22062492   -7830662.000
 -13.11375046   -7831538.000
 -13.00687504   -7832417.500
 -12.89999962   -7833300.000
 -12.79312515   -7834182.500
 -12.68624973   -7835065.500
 -12.57937527   -7835943.500
 -12.47249985   -7836817.500
 -12.36562538   -7837688.000
 -12.25874996   -7838551.000
 -12.15187454   -7839407.000
 -12.04500008   -7840259.000
 -11.93812466   -7841105.500
 -11.83125019   -7841950.500
 -11.72437477   -7842794.000
 -11.61750031   -7843638.000
 -11.51062489   -7844484.000
 -11.40375042   -7845333.000
 -11.29687500   -7846186.500
 -11.18999958   -7847045.500
 -11.08312511   -7847907.000
 -10.97624969   -7848772.000
 -10.86937523   -7849640.000
 -10.76249981   -7850512.000
 -10.65562534   -7851384.000
 -10.54874992   -7852253.500
 -10.44187546   -7853121.500
 -10.33500004   -7853987.500
 -10.22812462   -7854850.000
 -10.12125015   -7855708.500
 -10.01437473   -7856563.500
 -9.907500267   -7857410.500
 -9.800624847   -7858255.500
 -9.693750381   -7859095.000
 -9.586874962   -7859931.000
 -9.479999542   -7860766.500
 -9.373125076   -7861602.000
 -9.266249657   -7862437.500
 -9.159375191   -7863278.000
 -9.052499771   -7864121.000
 -8.945625305   -7864970.000
 -8.838749886   -7865822.500
 -8.731875420   -7866680.500
 -8.625000000   -7867539.000
 -8.518124580   -7868401.500
 -8.411250114   -7869265.000
 -8.304374695   -7870125.500
 -8.197500229   -7870987.000
 -8.090624809   -7871845.000
 -7.983749866   -7872701.000
 -7.876874924   -7873554.500
 -7.769999981   -7874405.500
 -7.663125038   -7875251.500
 -7.556250095   -7876095.000
 -7.449375153   -7876936.500
 -7.342500210   -7877774.500
 -7.235624790   -7878615.000
 -7.128749847   -7879454.500
 -7.021874905   -7880296.000
 -6.914999962   -7881139.000
 -6.808125019   -7881985.500
 -6.701250076   -7882836.500
 -6.594375134   -7883688.500
 -6.487500191   -7884543.000
 -6.380624771   -7885402.000
 -6.273749828   -7886259.500
 -6.166874886   -7887118.000
 -6.059999943   -7887977.000
 -5.953125000   -7888834.500
 -5.846250057   -7889692.000
 -5.739375114   -7890546.500
 -5.632500172   -7891398.000
 -5.525625229   -7892247.000
 -5.418749809   -7893094.000
 -5.311874866   -7893936.000
 -5.204999924   -7894776.000
 -5.098124981   -7895614.000
 -4.991250038   -7896450.500
 -4.884375095   -7897289.000
 -4.777500153   -7898127.500
 -4.670625210   -7898968.500
 -4.563749790   -7899811.500
 -4.456874847   -7900658.500
 -4.349999905   -7901506.500
 -4.243124962   -7902358.000
 -4.136250019   -7903211.000
 -4.029375076   -7904065.500
 -3.922499895   -7904919.500
 -3.815624952   -7905774.000
 -3.708750010   -7906628.000
 -3.601875067   -7907479.000
 -3.494999886   -7908329.000
 -3.388124943   -7909174.500
 -3.281250000   -7910017.500
 -3.174375057   -7910856.000
 -3.067500114   -7911691.500
 -2.960624933   -7912523.000
 -2.853749990   -7913354.500
 -2.746875048   -7914184.000
 -2.640000105   -7915013.500
 -2.533124924   -7915847.000
 -2.426249981   -7916686.500
 -2.319375038   -7917531.000
 -2.212500095   -7918380.000
 -2.105624914   -7919236.500
 -1.998749971   -7920094.000
 -1.891875029   -7920956.000
 -1.784999967   -7921816.500
 -1.678125024   -7922675.000
 -1.571249962   -7923530.000
 -1.464375019   -7924383.000
 -1.357499957   -7925228.500
 -1.250625014   -7926073.500
 -1.143749952   -7926913.000
 -1.036875010   -7927750.000
 -0.9300000072   -7928585.000
 -0.8231250048   -7929420.000
 -0.7162500024   -7930252.500
 -0.6093750000   -7931087.000
 -0.5024999976   -7931922.500
 -0.3956249952   -7932758.500
 -0.2887499928   -7933601.000
 -0.1818750054   -7934445.500
 -0.7500000298E-01   -7935295.000
 0.3187499940E-01   -7936147.500
 0.1387500018   -7937002.000
 0.2456250042   -7937859.000
 0.3524999917   -7938713.500
 0.4593749940   -7939565.000
 0.5662500262   -7940412.500
 0.6731250286   -7941257.000
 0.7799999714   -7942096.500
 0.8868749738   -7942932.000
 0.9937499762   -7943764.000
 1.100625038   -7944596.500
 1.207499981   -7945425.000
 1.314375043   -7946254.000
 1.421249986   -7947082.500
 1.528125048   -7947915.500
 1.634999990   -7948748.000
 1.741875052   -7949582.000
 1.848749995   -7950419.500
 1.955625057   -7951260.500
