 -30.00000000   8483777.000
 -29.89312553   8484752.000
 -29.78624916   8485726.000
 -29.67937469   8486700.000
 -29.57250023   8487673.000
 -29.46562576   8488645.000
 -29.35874939   8489619.000
 -29.25187492   8490592.000
 -29.14500046   8491564.000
 -29.03812408   8492536.000
 -28.93124962   8493508.000
 -28.82437515   8494481.000
 -28.71750069   8495452.000
 -28.61062431   8496423.000
 -28.50374985   8497394.000
 -28.39687538   8498369.000
 -28.29000092   8499340.000
 -28.18312454   8500314.000
 -28.07625008   8501288.000
 -27.96937561   8502262.000
 -27.86249924   8503235.000
 -27.75562477   8504206.000
 -27.64875031   8505174.000
 -27.54187584   8506143.000
 -27.43499947   8507109.000
 -27.32812500   8508076.000
 -27.22125053   8509042.000
 -27.11437416   8510011.000
 -27.00749969   8510981.000
 -26.90062523   8511957.000
 -26.79375076   8512933.000
 -26.68687439   8513914.000
 -26.57999992   8514897.000
 -26.47312546   8515882.000
 -26.36624908   8516867.000
 -26.25937462   8517851.000
 -26.15250015   8518831.000
 -26.04562569   8519807.000
 -25.93874931   8520778.000
 -25.83187485   8521743.000
 -25.72500038   8522702.000
 -25.61812592   8523656.000
 -25.51124954   8524610.000
 -25.40437508   8525565.000
 -25.29750061   8526522.000
 -25.19062424   8527485.000
 -25.08374977   8528452.000
 -24.97687531   8529422.000
 -24.87000084   8530392.000
 -24.76312447   8531365.000
 -24.65625000   8532338.000
 -24.54937553   8533308.000
 -24.44249916   8534275.000
 -24.33562469   8535242.000
 -24.22875023   8536205.000
 -24.12187576   8537171.000
 -24.01499939   8538137.000
 -23.90812492   8539107.000
 -23.80125046   8540078.000
 -23.69437408   8541051.000
 -23.58749962   8542027.000
 -23.48062515   8543004.000
 -23.37375069   8543980.000
 -23.26687431   8544956.000
 -23.15999985   8545929.000
 -23.05312538   8546900.000
 -22.94625092   8547869.000
 -22.83937454   8548841.000
 -22.73250008   8549814.000
 -22.62562561   8550790.000
 -22.51874924   8551769.000
 -22.41187477   8552753.000
 -22.30500031   8553738.000
 -22.19812584   8554724.000
 -22.09124947   8555710.000
 -21.98437500   8556693.000
 -21.87750053   8557671.000
 -21.77062416   8558650.000
 -21.66374969   8559625.000
 -21.55687523   8560600.000
 -21.45000076   8561574.000
 -21.34312439   8562547.000
 -21.23624992   8563521.000
 -21.12937546   8564489.000
 -21.02249908   8565458.000
 -20.91562462   8566424.000
 -20.80875015   8567388.000
 -20.70187569   8568348.000
 -20.59499931   8569312.000
 -20.48812485   8570274.000
 -20.38125038   8571240.000
 -20.27437592   8572207.000
 -20.16749954   8573178.000
 -20.06062508   8574148.000
 -19.95375061   8575117.000
 -19.84687424   8576083.000
 -19.73999977   8577044.000
 -19.63312531   8578001.000
 -19.52625084   8578955.000
 -19.41937447   8579906.000
 -19.31250000   8580855.000
 -19.20562553   8581805.000
 -19.09874916   8582759.000
 -18.99187469   8583715.000
 -18.88500023   8584672.000
 -18.77812576   8585632.000
 -18.67124939   8586594.000
 -18.56437492   8587555.000
 -18.45750046   8588518.000
 -18.35062408   8589477.000
 -18.24374962   8590440.000
 -18.13687515   8591404.000
 -18.03000069   8592371.000
 -17.92312431   8593340.000
 -17.81624985   8594310.000
 -17.70937538   8595282.000
 -17.60250092   8596253.000
 -17.49562454   8597222.000
 -17.38875008   8598193.000
 -17.28187561   8599158.000
 -17.17499924   8600123.000
 -17.06812477   8601086.000
 -16.96125031   8602051.000
 -16.85437584   8603015.000
 -16.74749947   8603978.000
 -16.64062500   8604941.000
 -16.53375053   8605901.000
 -16.42687416   8606861.000
 -16.31999969   8607820.000
 -16.21312523   8608777.000
 -16.10625076   8609737.000
 -15.99937534   8610698.000
 -15.89249992   8611661.000
 -15.78562546   8612630.000
 -15.67875004   8613595.000
 -15.57187462   8614561.000
 -15.46500015   8615523.000
 -15.35812473   8616481.000
 -15.25125027   8617433.000
 -15.14437485   8618378.000
 -15.03750038   8619319.000
 -14.93062496   8620259.000
 -14.82374954   8621201.000
 -14.71687508   8622145.000
 -14.60999966   8623095.000
 -14.50312519   8624048.000
 -14.39624977   8625007.000
 -14.28937531   8625969.000
 -14.18249989   8626939.000
 -14.07562542   8627909.000
 -13.96875000   8628881.000
 -13.86187458   8629852.000
 -13.75500011   8630821.000
 -13.64812469   8631789.000
 -13.54125023   8632749.000
 -13.43437481   8633708.000
 -13.32750034   8634659.000
 -13.22062492   8635607.000
 -13.11375046   8636553.000
 -13.00687504   8637496.000
 -12.89999962   8638441.000
 -12.79312515   8639386.000
 -12.68624973   8640335.000
 -12.57937527   8641287.000
 -12.47249985   8642242.000
 -12.36562538   8643198.000
 -12.25874996   8644157.000
 -12.15187454   8645113.000
 -12.04500008   8646069.000
 -11.93812466   8647024.000
 -11.83125019   8647975.000
 -11.72437477   8648924.000
 -11.61750031   8649871.000
 -11.51062489   8650820.000
 -11.40375042   8651770.000
 -11.29687500   8652723.000
 -11.18999958   8653679.000
 -11.08312511   8654640.000
 -10.97624969   8655607.000
 -10.86937523   8656573.000
 -10.76249981   8657543.000
 -10.65562534   8658509.000
 -10.54874992   8659473.000
 -10.44187546   8660432.000
 -10.33500004   8661389.000
 -10.22812462   8662341.000
 -10.12125015   8663290.000
 -10.01437473   8664243.000
 -9.907500267   8665195.000
 -9.800624847   8666150.000
 -9.693750381   8667107.000
 -9.586874962   8668067.000
 -9.479999542   8669028.000
 -9.373125076   8669990.000
 -9.266249657   8670951.000
 -9.159375191   8671916.000
 -9.052499771   8672881.000
 -8.945625305   8673846.000
 -8.838749886   8674811.000
 -8.731875420   8675772.000
 -8.625000000   8676732.000
 -8.518124580   8677689.000
 -8.411250114   8678645.000
 -8.304374695   8679600.000
 -8.197500229   8680558.000
 -8.090624809   8681519.000
 -7.983749866   8682483.000
 -7.876874924   8683450.000
 -7.769999981   8684417.000
 -7.663125038   8685385.000
 -7.556250095   8686352.000
 -7.449375153   8687316.000
 -7.342500210   8688279.000
 -7.235624790   8689239.000
 -7.128749847   8690200.000
 -7.021874905   8691159.000
 -6.914999962   8692119.000
 -6.808125019   8693075.000
 -6.701250076   8694030.000
 -6.594375134   8694980.000
 -6.487500191   8695927.000
 -6.380624771   8696872.000
 -6.273749828   8697816.000
 -6.166874886   8698761.000
 -6.059999943   8699706.000
 -5.953125000   8700654.000
 -5.846250057   8701603.000
 -5.739375114   8702552.000
 -5.632500172   8703500.000
 -5.525625229   8704447.000
 -5.418749809   8705392.000
 -5.311874866   8706335.000
 -5.204999924   8707275.000
 -5.098124981   8708213.000
 -4.991250038   8709149.000
 -4.884375095   8710083.000
 -4.777500153   8711019.000
 -4.670625210   8711952.000
 -4.563749790   8712887.000
 -4.456874847   8713822.000
 -4.349999905   8714760.000
 -4.243124962   8715698.000
 -4.136250019   8716639.000
 -4.029375076   8717579.000
 -3.922499895   8718517.000
 -3.815624952   8719452.000
 -3.708750010   8720387.000
 -3.601875067   8721318.000
 -3.494999886   8722250.000
 -3.388124943   8723178.000
 -3.281250000   8724108.000
 -3.174375057   8725037.000
 -3.067500114   8725962.000
 -2.960624933   8726888.000
 -2.853749990   8727810.000
 -2.746875048   8728730.000
 -2.640000105   8729650.000
 -2.533124924   8730567.000
 -2.426249981   8731488.000
 -2.319375038   8732408.000
 -2.212500095   8733331.000
 -2.105624914   8734256.000
 -1.998749971   8735180.000
 -1.891875029   8736106.000
 -1.784999967   8737031.000
 -1.678125024   8737958.000
 -1.571249962   8738885.000
 -1.464375019   8739811.000
 -1.357499957   8740740.000
 -1.250625014   8741668.000
 -1.143749952   8742597.000
 -1.036875010   8743524.000
 -0.9300000072   8744452.000
 -0.8231250048   8745380.000
 -0.7162500024   8746306.000
 -0.6093750000   8747237.000
 -0.5024999976   8748165.000
 -0.3956249952   8749095.000
 -0.2887499928   8750025.000
 -0.1818750054   8750952.000
 -0.7500000298E-01   8751875.000
 0.3187499940E-01   8752796.000
 0.1387500018   8753711.000
 0.2456250042   8754626.000
 0.3524999917   8755539.000
 0.4593749940   8756459.000
 0.5662500262   8757383.000
 0.6731250286   8758313.000
 0.7799999714   8759248.000
 0.8868749738   8760186.000
 0.9937499762   8761123.000
 1.100625038   8762057.000
 1.207499981   8762984.000
 1.314375043   8763905.000
 1.421249986   8764822.000
 1.528125048   8765739.000
 1.634999990   8766654.000
 1.741875052   8767573.000
 1.848749995   8768494.000
 1.955625057   8769418.000
