 -30.00000000   825250.4375
 -29.89312553   825342.6875
 -29.78624916   825434.8750
 -29.67937469   825524.8125
 -29.57250023   825613.3750
 -29.46562576   825701.5625
 -29.35874939   825789.3750
 -29.25187492   825878.6875
 -29.14500046   825968.4375
 -29.03812408   826058.6875
 -28.93124962   826148.4375
 -28.82437515   826240.2500
 -28.71750069   826330.4375
 -28.61062431   826421.6250
 -28.50374985   826513.3750
 -28.39687538   826602.3750
 -28.29000092   826690.6875
 -28.18312454   826780.8125
 -28.07625008   826870.0000
 -27.96937561   826958.5000
 -27.86249924   827046.2500
 -27.75562477   827134.5000
 -27.64875031   827224.4375
 -27.54187584   827314.4375
 -27.43499947   827403.7500
 -27.32812500   827495.5625
 -27.22125053   827588.9375
 -27.11437416   827682.6875
 -27.00749969   827777.5000
 -26.90062523   827872.6250
 -26.79375076   827968.8125
 -26.68687439   828067.0625
 -26.57999992   828163.1250
 -26.47312546   828259.7500
 -26.36624908   828358.8125
 -26.25937462   828457.4375
 -26.15250015   828556.0625
 -26.04562569   828655.5625
 -25.93874931   828754.9375
 -25.83187485   828854.6250
 -25.72500038   828951.1875
 -25.61812592   829047.1875
 -25.51124954   829139.6250
 -25.40437508   829228.3125
 -25.29750061   829315.0625
 -25.19062424   829399.5625
 -25.08374977   829483.3125
 -24.97687531   829568.5625
 -24.87000084   829654.3750
 -24.76312447   829743.5000
 -24.65625000   829836.0625
 -24.54937553   829933.1875
 -24.44249916   830032.6875
 -24.33562469   830132.7500
 -24.22875023   830232.8125
 -24.12187576   830331.0000
 -24.01499939   830426.0000
 -23.90812492   830517.1250
 -23.80125046   830604.3125
 -23.69437408   830686.8125
 -23.58749962   830768.2500
 -23.48062515   830850.0625
 -23.37375069   830932.5625
 -23.26687431   831017.5625
 -23.15999985   831106.4375
 -23.05312538   831200.3125
 -22.94625092   831296.8750
 -22.83937454   831396.0625
 -22.73250008   831497.9375
 -22.62562561   831599.2500
 -22.51874924   831697.9375
 -22.41187477   831796.3750
 -22.30500031   831892.9375
 -22.19812584   831987.4375
 -22.09124947   832078.8125
 -21.98437500   832171.7500
 -21.87750053   832265.1875
 -21.77062416   832359.4375
 -21.66374969   832454.5625
 -21.55687523   832550.0000
 -21.45000076   832646.4375
 -21.34312439   832742.5000
 -21.23624992   832837.9375
 -21.12937546   832932.1250
 -21.02249908   833026.1875
 -20.91562462   833118.7500
 -20.80875015   833209.6875
 -20.70187569   833300.2500
 -20.59499931   833391.6250
 -20.48812485   833482.0625
 -20.38125038   833575.3750
 -20.27437592   833669.6875
 -20.16749954   833763.8125
 -20.06062508   833860.3125
 -19.95375061   833956.5625
 -19.84687424   834054.0625
 -19.73999977   834153.2500
 -19.63312531   834254.2500
 -19.52625084   834354.2500
 -19.41937447   834454.5625
 -19.31250000   834557.1250
 -19.20562553   834655.5000
 -19.09874916   834754.9375
 -18.99187469   834852.2500
 -18.88500023   834945.8750
 -18.77812576   835040.4375
 -18.67124939   835132.0625
 -18.56437492   835223.9375
 -18.45750046   835315.7500
 -18.35062408   835409.8125
 -18.24374962   835505.2500
 -18.13687515   835604.0625
 -18.03000069   835706.0000
 -17.92312431   835809.8750
 -17.81624985   835914.0625
 -17.70937538   836020.4375
 -17.60250092   836125.9375
 -17.49562454   836229.1250
 -17.38875008   836330.5000
 -17.28187561   836426.3750
 -17.17499924   836518.3125
 -17.06812477   836605.8125
 -16.96125031   836688.0625
 -16.85437584   836767.6250
 -16.74749947   836846.3750
 -16.64062500   836923.0000
 -16.53375053   837002.5625
 -16.42687416   837084.9375
 -16.31999969   837171.6250
 -16.21312523   837262.1875
 -16.10625076   837357.6875
 -15.99937534   837457.5625
 -15.89249992   837558.8750
 -15.78562546   837660.3750
 -15.67875004   837760.6250
 -15.57187462   837859.8125
 -15.46500015   837953.0625
 -15.35812473   838044.1875
 -15.25125027   838133.1250
 -15.14437485   838220.6875
 -15.03750038   838307.3750
 -14.93062496   838395.5625
 -14.82374954   838484.6875
 -14.71687508   838576.3125
 -14.60999966   838672.6875
 -14.50312519   838770.1875
 -14.39624977   838867.8750
 -14.28937531   838967.8125
 -14.18249989   839066.6250
 -14.07562542   839165.1875
 -13.96875000   839263.4375
 -13.86187458   839361.2500
 -13.75500011   839459.6875
 -13.64812469   839560.5000
 -13.54125023   839661.0625
 -13.43437481   839765.6250
 -13.32750034   839872.6250
 -13.22062492   839984.7500
 -13.11375046   840099.5625
 -13.00687504   840217.4375
 -12.89999962   840338.1875
 -12.79312515   840460.7500
 -12.68624973   840581.4375
 -12.57937527   840703.8125
 -12.47249985   840821.5000
 -12.36562538   840938.1250
 -12.25874996   841050.6250
 -12.15187454   841160.0625
 -12.04500008   841266.1875
 -11.93812466   841369.1250
 -11.83125019   841469.1875
 -11.72437477   841567.1250
 -11.61750031   841664.1875
 -11.51062489   841760.6875
 -11.40375042   841858.3125
 -11.29687500   841956.1875
 -11.18999958   842053.5000
 -11.08312511   842153.8750
 -10.97624969   842252.8750
 -10.86937523   842354.0625
 -10.76249981   842457.9375
 -10.65562534   842561.1250
 -10.54874992   842667.1875
 -10.44187546   842776.5000
 -10.33500004   842886.9375
 -10.22812462   843002.5625
 -10.12125015   843119.4375
 -10.01437473   843241.3125
 -9.907500267   843365.8750
 -9.800624847   843491.9375
 -9.693750381   843621.3750
 -9.586874962   843751.0625
 -9.479999542   843879.9375
 -9.373125076   844008.6250
 -9.266249657   844135.1250
 -9.159375191   844260.5625
 -9.052499771   844386.3125
 -8.945625305   844509.5625
 -8.838749886   844634.5000
 -8.731875420   844760.0000
 -8.625000000   844887.0625
 -8.518124580   845011.5000
 -8.411250114   845137.3750
 -8.304374695   845257.5000
 -8.197500229   845375.1250
 -8.090624809   845486.0000
 -7.983749866   845589.9375
 -7.876874924   845688.3750
 -7.769999981   845778.3125
 -7.663125038   845864.1875
 -7.556250095   845945.0625
 -7.449375153   846024.9375
 -7.342500210   846100.7500
 -7.235624790   846175.5625
 -7.128749847   846251.3750
 -7.021874905   846324.0625
 -6.914999962   846397.1875
 -6.808125019   846465.8125
 -6.701250076   846531.3125
 -6.594375134   846593.3750
 -6.487500191   846650.1875
 -6.380624771   846701.7500
 -6.273749828   846749.9375
 -6.166874886   846794.0625
 -6.059999943   846836.1250
 -5.953125000   846877.6250
 -5.846250057   846918.3750
 -5.739375114   846963.4375
 -5.632500172   847011.0000
 -5.525625229   847060.1250
 -5.418749809   847116.1250
 -5.311874866   847174.6875
 -5.204999924   847237.8125
 -5.098124981   847306.0000
 -4.991250038   847376.3125
 -4.884375095   847450.8750
 -4.777500153   847525.1875
 -4.670625210   847601.4375
 -4.563749790   847679.2500
 -4.456874847   847755.3125
 -4.349999905   847833.0625
 -4.243124962   847908.5625
 -4.136250019   847985.1250
 -4.029375076   848060.5000
 -3.922499895   848136.7500
 -3.815624952   848213.1875
 -3.708750010   848291.0625
 -3.601875067   848372.3750
 -3.494999886   848455.1875
 -3.388124943   848541.9375
 -3.281250000   848633.0625
 -3.174375057   848726.0000
 -3.067500114   848825.0625
 -2.960624933   848924.0625
 -2.853749990   849029.6250
 -2.746875048   849135.1250
 -2.640000105   849242.1875
 -2.533124924   849350.6875
 -2.426249981   849459.7500
 -2.319375038   849567.8125
 -2.212500095   849675.1250
 -2.105624914   849780.5000
 -1.998749971   849883.0000
 -1.891875029   849986.1250
 -1.784999967   850087.6875
 -1.678125024   850190.8750
 -1.571249962   850295.8750
 -1.464375019   850400.6875
 -1.357499957   850511.9375
 -1.250625014   850624.2500
 -1.143749952   850742.0625
 -1.036875010   850863.3750
 -0.9300000072   850988.4375
 -0.8231250048   851114.6875
 -0.7162500024   851240.3750
 -0.6093750000   851364.0625
 -0.5024999976   851487.3125
 -0.3956249952   851606.0625
 -0.2887499928   851723.4375
 -0.1818750054   851837.7500
 -0.7500000298E-01   851951.4375
 0.3187499940E-01   852062.5000
 0.1387500018   852176.1875
 0.2456250042   852290.3750
 0.3524999917   852404.3125
 0.4593749940   852518.8750
 0.5662500262   852633.6875
 0.6731250286   852748.0625
 0.7799999714   852860.2500
 0.8868749738   852968.3125
 0.9937499762   853074.1875
 1.100625038   853177.4375
 1.207499981   853277.5000
 1.314375043   853377.1875
 1.421249986   853474.8125
 1.528125048   853573.8125
 1.634999990   853674.3125
 1.741875052   853775.1875
 1.848749995   853877.8750
 1.955625057   853981.7500
