 -30.00000000   7010092.500
 -29.89312553   7010899.000
 -29.78624916   7011706.000
 -29.67937469   7012514.500
 -29.57250023   7013322.500
 -29.46562576   7014130.500
 -29.35874939   7014939.500
 -29.25187492   7015747.500
 -29.14500046   7016554.000
 -29.03812408   7017360.500
 -28.93124962   7018166.500
 -28.82437515   7018973.500
 -28.71750069   7019778.000
 -28.61062431   7020583.000
 -28.50374985   7021387.500
 -28.39687538   7022193.000
 -28.29000092   7022999.000
 -28.18312454   7023802.500
 -28.07625008   7024609.000
 -27.96937561   7025415.000
 -27.86249924   7026220.500
 -27.75562477   7027024.000
 -27.64875031   7027830.500
 -27.54187584   7028634.500
 -27.43499947   7029441.500
 -27.32812500   7030247.500
 -27.22125053   7031056.500
 -27.11437416   7031863.000
 -27.00749969   7032672.500
 -26.90062523   7033480.500
 -26.79375076   7034289.500
 -26.68687439   7035099.000
 -26.57999992   7035906.500
 -26.47312546   7036714.500
 -26.36624908   7037521.500
 -26.25937462   7038330.500
 -26.15250015   7039138.000
 -26.04562569   7039944.500
 -25.93874931   7040752.500
 -25.83187485   7041558.500
 -25.72500038   7042361.000
 -25.61812592   7043164.000
 -25.51124954   7043964.500
 -25.40437508   7044764.000
 -25.29750061   7045563.000
 -25.19062424   7046363.000
 -25.08374977   7047163.500
 -24.97687531   7047965.500
 -24.87000084   7048769.500
 -24.76312447   7049572.500
 -24.65625000   7050378.500
 -24.54937553   7051187.000
 -24.44249916   7051991.500
 -24.33562469   7052796.500
 -24.22875023   7053599.000
 -24.12187576   7054399.500
 -24.01499939   7055198.000
 -23.90812492   7055991.500
 -23.80125046   7056784.500
 -23.69437408   7057576.000
 -23.58749962   7058365.500
 -23.48062515   7059159.500
 -23.37375069   7059951.500
 -23.26687431   7060748.000
 -23.15999985   7061545.500
 -23.05312538   7062346.000
 -22.94625092   7063149.000
 -22.83937454   7063950.000
 -22.73250008   7064754.500
 -22.62562561   7065556.000
 -22.51874924   7066356.000
 -22.41187477   7067156.500
 -22.30500031   7067954.000
 -22.19812584   7068749.500
 -22.09124947   7069544.000
 -21.98437500   7070336.000
 -21.87750053   7071129.500
 -21.77062416   7071921.500
 -21.66374969   7072716.000
 -21.55687523   7073510.500
 -21.45000076   7074306.000
 -21.34312439   7075105.500
 -21.23624992   7075903.500
 -21.12937546   7076702.000
 -21.02249908   7077500.000
 -20.91562462   7078300.500
 -20.80875015   7079096.500
 -20.70187569   7079892.500
 -20.59499931   7080688.500
 -20.48812485   7081483.000
 -20.38125038   7082276.000
 -20.27437592   7083067.000
 -20.16749954   7083859.500
 -20.06062508   7084652.000
 -19.95375061   7085445.000
 -19.84687424   7086241.000
 -19.73999977   7087037.000
 -19.63312531   7087834.500
 -19.52625084   7088635.500
 -19.41937447   7089434.500
 -19.31250000   7090232.000
 -19.20562553   7091029.500
 -19.09874916   7091821.500
 -18.99187469   7092611.000
 -18.88500023   7093397.000
 -18.77812576   7094183.500
 -18.67124939   7094970.500
 -18.56437492   7095759.000
 -18.45750046   7096554.000
 -18.35062408   7097352.000
 -18.24374962   7098154.500
 -18.13687515   7098962.500
 -18.03000069   7099772.500
 -17.92312431   7100581.000
 -17.81624985   7101388.000
 -17.70937538   7102191.500
 -17.60250092   7102987.500
 -17.49562454   7103779.500
 -17.38875008   7104569.500
 -17.28187561   7105355.500
 -17.17499924   7106144.000
 -17.06812477   7106936.000
 -16.96125031   7107731.500
 -16.85437584   7108531.000
 -16.74749947   7109333.000
 -16.64062500   7110136.500
 -16.53375053   7110938.500
 -16.42687416   7111741.500
 -16.31999969   7112542.000
 -16.21312523   7113338.500
 -16.10625076   7114134.000
 -15.99937534   7114926.500
 -15.89249992   7115719.000
 -15.78562546   7116511.000
 -15.67875004   7117303.000
 -15.57187462   7118096.500
 -15.46500015   7118891.000
 -15.35812473   7119687.000
 -15.25125027   7120483.000
 -15.14437485   7121279.500
 -15.03750038   7122076.500
 -14.93062496   7122871.500
 -14.82374954   7123666.000
 -14.71687508   7124458.000
 -14.60999966   7125247.500
 -14.50312519   7126035.000
 -14.39624977   7126820.000
 -14.28937531   7127604.500
 -14.18249989   7128387.500
 -14.07562542   7129172.500
 -13.96875000   7129959.000
 -13.86187458   7130744.500
 -13.75500011   7131532.500
 -13.64812469   7132323.500
 -13.54125023   7133110.000
 -13.43437481   7133901.000
 -13.32750034   7134690.000
 -13.22062492   7135482.000
 -13.11375046   7136272.500
 -13.00687504   7137066.500
 -12.89999962   7137859.000
 -12.79312515   7138653.000
 -12.68624973   7139446.000
 -12.57937527   7140234.000
 -12.47249985   7141020.000
 -12.36562538   7141801.500
 -12.25874996   7142580.000
 -12.15187454   7143356.500
 -12.04500008   7144135.000
 -11.93812466   7144911.000
 -11.83125019   7145692.500
 -11.72437477   7146478.500
 -11.61750031   7147266.000
 -11.51062489   7148055.500
 -11.40375042   7148847.500
 -11.29687500   7149641.000
 -11.18999958   7150431.500
 -11.08312511   7151224.000
 -10.97624969   7152013.500
 -10.86937523   7152803.000
 -10.76249981   7153591.000
 -10.65562534   7154376.500
 -10.54874992   7155161.000
 -10.44187546   7155945.000
 -10.33500004   7156725.000
 -10.22812462   7157506.500
 -10.12125015   7158290.000
 -10.01437473   7159075.500
 -9.907500267   7159861.500
 -9.800624847   7160650.500
 -9.693750381   7161440.500
 -9.586874962   7162232.000
 -9.479999542   7163025.500
 -9.373125076   7163815.500
 -9.266249657   7164608.000
 -9.159375191   7165399.500
 -9.052499771   7166191.000
 -8.945625305   7166981.000
 -8.838749886   7167769.000
 -8.731875420   7168556.000
 -8.625000000   7169343.000
 -8.518124580   7170129.500
 -8.411250114   7170917.000
 -8.304374695   7171707.000
 -8.197500229   7172497.500
 -8.090624809   7173288.500
 -7.983749866   7174078.000
 -7.876874924   7174868.000
 -7.769999981   7175654.000
 -7.663125038   7176438.000
 -7.556250095   7177218.500
 -7.449375153   7177997.000
 -7.342500210   7178774.000
 -7.235624790   7179553.500
 -7.128749847   7180332.000
 -7.021874905   7181112.000
 -6.914999962   7181891.500
 -6.808125019   7182672.500
 -6.701250076   7183452.500
 -6.594375134   7184231.000
 -6.487500191   7185008.500
 -6.380624771   7185783.500
 -6.273749828   7186559.000
 -6.166874886   7187335.000
 -6.059999943   7188112.000
 -5.953125000   7188888.000
 -5.846250057   7189663.500
 -5.739375114   7190438.000
 -5.632500172   7191210.500
 -5.525625229   7191982.000
 -5.418749809   7192754.000
 -5.311874866   7193527.000
 -5.204999924   7194303.000
 -5.098124981   7195085.500
 -4.991250038   7195864.500
 -4.884375095   7196647.500
 -4.777500153   7197428.500
 -4.670625210   7198205.500
 -4.563749790   7198977.000
 -4.456874847   7199745.000
 -4.349999905   7200511.000
 -4.243124962   7201275.500
 -4.136250019   7202041.500
 -4.029375076   7202812.500
 -3.922499895   7203589.500
 -3.815624952   7204370.000
 -3.708750010   7205154.000
 -3.601875067   7205938.500
 -3.494999886   7206720.500
 -3.388124943   7207499.000
 -3.281250000   7208274.000
 -3.174375057   7209045.500
 -3.067500114   7209812.500
 -2.960624933   7210581.000
 -2.853749990   7211348.500
 -2.746875048   7212117.500
 -2.640000105   7212891.000
 -2.533124924   7213667.500
 -2.426249981   7214446.000
 -2.319375038   7215226.000
 -2.212500095   7216006.000
 -2.105624914   7216785.500
 -1.998749971   7217561.500
 -1.891875029   7218338.000
 -1.784999967   7219113.000
 -1.678125024   7219891.000
 -1.571249962   7220671.000
 -1.464375019   7221452.500
 -1.357499957   7222235.500
 -1.250625014   7223017.000
 -1.143749952   7223794.500
 -1.036875010   7224568.500
 -0.9300000072   7225336.500
 -0.8231250048   7226100.500
 -0.7162500024   7226862.000
 -0.6093750000   7227621.000
 -0.5024999976   7228383.500
 -0.3956249952   7229146.500
 -0.2887499928   7229913.000
 -0.1818750054   7230680.000
 -0.7500000298E-01   7231448.000
 0.3187499940E-01   7232213.500
 0.1387500018   7232977.500
 0.2456250042   7233736.500
 0.3524999917   7234495.000
 0.4593749940   7235253.500
 0.5662500262   7236013.000
 0.6731250286   7236775.500
 0.7799999714   7237538.500
 0.8868749738   7238304.000
 0.9937499762   7239068.000
 1.100625038   7239834.000
 1.207499981   7240598.000
 1.314375043   7241362.500
 1.421249986   7242128.000
 1.528125048   7242895.500
 1.634999990   7243662.000
 1.741875052   7244431.500
 1.848749995   7245200.500
 1.955625057   7245969.500
