 -30.00000000   -8889453.000
 -29.89312553   -8890474.000
 -29.78624916   -8891493.000
 -29.67937469   -8892512.000
 -29.57250023   -8893527.000
 -29.46562576   -8894541.000
 -29.35874939   -8895555.000
 -29.25187492   -8896568.000
 -29.14500046   -8897581.000
 -29.03812408   -8898596.000
 -28.93124962   -8899613.000
 -28.82437515   -8900633.000
 -28.71750069   -8901651.000
 -28.61062431   -8902675.000
 -28.50374985   -8903698.000
 -28.39687538   -8904722.000
 -28.29000092   -8905747.000
 -28.18312454   -8906767.000
 -28.07625008   -8907787.000
 -27.96937561   -8908802.000
 -27.86249924   -8909816.000
 -27.75562477   -8910828.000
 -27.64875031   -8911838.000
 -27.54187584   -8912848.000
 -27.43499947   -8913858.000
 -27.32812500   -8914869.000
 -27.22125053   -8915882.000
 -27.11437416   -8916898.000
 -27.00749969   -8917914.000
 -26.90062523   -8918930.000
 -26.79375076   -8919949.000
 -26.68687439   -8920968.000
 -26.57999992   -8921989.000
 -26.47312546   -8923010.000
 -26.36624908   -8924027.000
 -26.25937462   -8925047.000
 -26.15250015   -8926061.000
 -26.04562569   -8927077.000
 -25.93874931   -8928088.000
 -25.83187485   -8929098.000
 -25.72500038   -8930106.000
 -25.61812592   -8931113.000
 -25.51124954   -8932118.000
 -25.40437508   -8933127.000
 -25.29750061   -8934134.000
 -25.19062424   -8935142.000
 -25.08374977   -8936152.000
 -24.97687531   -8937163.000
 -24.87000084   -8938174.000
 -24.76312447   -8939186.000
 -24.65625000   -8940200.000
 -24.54937553   -8941212.000
 -24.44249916   -8942226.000
 -24.33562469   -8943242.000
 -24.22875023   -8944257.000
 -24.12187576   -8945275.000
 -24.01499939   -8946295.000
 -23.90812492   -8947315.000
 -23.80125046   -8948335.000
 -23.69437408   -8949358.000
 -23.58749962   -8950379.000
 -23.48062515   -8951401.000
 -23.37375069   -8952420.000
 -23.26687431   -8953437.000
 -23.15999985   -8954453.000
 -23.05312538   -8955467.000
 -22.94625092   -8956481.000
 -22.83937454   -8957496.000
 -22.73250008   -8958512.000
 -22.62562561   -8959532.000
 -22.51874924   -8960553.000
 -22.41187477   -8961578.000
 -22.30500031   -8962608.000
 -22.19812584   -8963640.000
 -22.09124947   -8964675.000
 -21.98437500   -8965710.000
 -21.87750053   -8966744.000
 -21.77062416   -8967780.000
 -21.66374969   -8968812.000
 -21.55687523   -8969843.000
 -21.45000076   -8970872.000
 -21.34312439   -8971899.000
 -21.23624992   -8972924.000
 -21.12937546   -8973949.000
 -21.02249908   -8974970.000
 -20.91562462   -8975987.000
 -20.80875015   -8977002.000
 -20.70187569   -8978015.000
 -20.59499931   -8979026.000
 -20.48812485   -8980036.000
 -20.38125038   -8981044.000
 -20.27437592   -8982053.000
 -20.16749954   -8983060.000
 -20.06062508   -8984069.000
 -19.95375061   -8985077.000
 -19.84687424   -8986085.000
 -19.73999977   -8987093.000
 -19.63312531   -8988099.000
 -19.52625084   -8989101.000
 -19.41937447   -8990105.000
 -19.31250000   -8991106.000
 -19.20562553   -8992103.000
 -19.09874916   -8993098.000
 -18.99187469   -8994092.000
 -18.88500023   -8995080.000
 -18.77812576   -8996069.000
 -18.67124939   -8997057.000
 -18.56437492   -8998043.000
 -18.45750046   -8999033.000
 -18.35062408   -9000025.000
 -18.24374962   -9001021.000
 -18.13687515   -9002023.000
 -18.03000069   -9003027.000
 -17.92312431   -9004034.000
 -17.81624985   -9005041.000
 -17.70937538   -9006042.000
 -17.60250092   -9007041.000
 -17.49562454   -9008034.000
 -17.38875008   -9009022.000
 -17.28187561   -9010003.000
 -17.17499924   -9010981.000
 -17.06812477   -9011957.000
 -16.96125031   -9012931.000
 -16.85437584   -9013907.000
 -16.74749947   -9014884.000
 -16.64062500   -9015865.000
 -16.53375053   -9016848.000
 -16.42687416   -9017830.000
 -16.31999969   -9018814.000
 -16.21312523   -9019799.000
 -16.10625076   -9020781.000
 -15.99937534   -9021761.000
 -15.89249992   -9022741.000
 -15.78562546   -9023719.000
 -15.67875004   -9024697.000
 -15.57187462   -9025676.000
 -15.46500015   -9026658.000
 -15.35812473   -9027642.000
 -15.25125027   -9028631.000
 -15.14437485   -9029624.000
 -15.03750038   -9030624.000
 -14.93062496   -9031625.000
 -14.82374954   -9032627.000
 -14.71687508   -9033628.000
 -14.60999966   -9034626.000
 -14.50312519   -9035618.000
 -14.39624977   -9036602.000
 -14.28937531   -9037579.000
 -14.18249989   -9038551.000
 -14.07562542   -9039521.000
 -13.96875000   -9040492.000
 -13.86187458   -9041471.000
 -13.75500011   -9042454.000
 -13.64812469   -9043448.000
 -13.54125023   -9044449.000
 -13.43437481   -9045456.000
 -13.32750034   -9046464.000
 -13.22062492   -9047469.000
 -13.11375046   -9048472.000
 -13.00687504   -9049468.000
 -12.89999962   -9050461.000
 -12.79312515   -9051451.000
 -12.68624973   -9052441.000
 -12.57937527   -9053430.000
 -12.47249985   -9054424.000
 -12.36562538   -9055419.000
 -12.25874996   -9056418.000
 -12.15187454   -9057416.000
 -12.04500008   -9058413.000
 -11.93812466   -9059409.000
 -11.83125019   -9060399.000
 -11.72437477   -9061388.000
 -11.61750031   -9062371.000
 -11.51062489   -9063354.000
 -11.40375042   -9064336.000
 -11.29687500   -9065317.000
 -11.18999958   -9066299.000
 -11.08312511   -9067283.000
 -10.97624969   -9068271.000
 -10.86937523   -9069262.000
 -10.76249981   -9070257.000
 -10.65562534   -9071252.000
 -10.54874992   -9072246.000
 -10.44187546   -9073241.000
 -10.33500004   -9074230.000
 -10.22812462   -9075216.000
 -10.12125015   -9076197.000
 -10.01437473   -9077176.000
 -9.907500267   -9078155.000
 -9.800624847   -9079134.000
 -9.693750381   -9080117.000
 -9.586874962   -9081106.000
 -9.479999542   -9082098.000
 -9.373125076   -9083094.000
 -9.266249657   -9084092.000
 -9.159375191   -9085091.000
 -9.052499771   -9086089.000
 -8.945625305   -9087084.000
 -8.838749886   -9088081.000
 -8.731875420   -9089078.000
 -8.625000000   -9090078.000
 -8.518124580   -9091079.000
 -8.411250114   -9092084.000
 -8.304374695   -9093091.000
 -8.197500229   -9094098.000
 -8.090624809   -9095103.000
 -7.983749866   -9096102.000
 -7.876874924   -9097097.000
 -7.769999981   -9098086.000
 -7.663125038   -9099067.000
 -7.556250095   -9100045.000
 -7.449375153   -9101020.000
 -7.342500210   -9101997.000
 -7.235624790   -9102974.000
 -7.128749847   -9103956.000
 -7.021874905   -9104941.000
 -6.914999962   -9105929.000
 -6.808125019   -9106922.000
 -6.701250076   -9107917.000
 -6.594375134   -9108910.000
 -6.487500191   -9109903.000
 -6.380624771   -9110893.000
 -6.273749828   -9111883.000
 -6.166874886   -9112873.000
 -6.059999943   -9113860.000
 -5.953125000   -9114850.000
 -5.846250057   -9115838.000
 -5.739375114   -9116825.000
 -5.632500172   -9117812.000
 -5.525625229   -9118798.000
 -5.418749809   -9119782.000
 -5.311874866   -9120771.000
 -5.204999924   -9121759.000
 -5.098124981   -9122746.000
 -4.991250038   -9123736.000
 -4.884375095   -9124725.000
 -4.777500153   -9125716.000
 -4.670625210   -9126707.000
 -4.563749790   -9127699.000
 -4.456874847   -9128692.000
 -4.349999905   -9129682.000
 -4.243124962   -9130673.000
 -4.136250019   -9131665.000
 -4.029375076   -9132655.000
 -3.922499895   -9133643.000
 -3.815624952   -9134628.000
 -3.708750010   -9135610.000
 -3.601875067   -9136588.000
 -3.494999886   -9137561.000
 -3.388124943   -9138534.000
 -3.281250000   -9139508.000
 -3.174375057   -9140481.000
 -3.067500114   -9141458.000
 -2.960624933   -9142439.000
 -2.853749990   -9143422.000
 -2.746875048   -9144408.000
 -2.640000105   -9145393.000
 -2.533124924   -9146376.000
 -2.426249981   -9147357.000
 -2.319375038   -9148334.000
 -2.212500095   -9149309.000
 -2.105624914   -9150282.000
 -1.998749971   -9151256.000
 -1.891875029   -9152236.000
 -1.784999967   -9153219.000
 -1.678125024   -9154209.000
 -1.571249962   -9155205.000
 -1.464375019   -9156204.000
 -1.357499957   -9157207.000
 -1.250625014   -9158213.000
 -1.143749952   -9159219.000
 -1.036875010   -9160223.000
 -0.9300000072   -9161227.000
 -0.8231250048   -9162231.000
 -0.7162500024   -9163229.000
 -0.6093750000   -9164227.000
 -0.5024999976   -9165221.000
 -0.3956249952   -9166211.000
 -0.2887499928   -9167202.000
 -0.1818750054   -9168190.000
 -0.7500000298E-01   -9169181.000
 0.3187499940E-01   -9170173.000
 0.1387500018   -9171169.000
 0.2456250042   -9172169.000
 0.3524999917   -9173175.000
 0.4593749940   -9174183.000
 0.5662500262   -9175196.000
 0.6731250286   -9176209.000
 0.7799999714   -9177221.000
 0.8868749738   -9178232.000
 0.9937499762   -9179238.000
 1.100625038   -9180240.000
 1.207499981   -9181238.000
 1.314375043   -9182233.000
 1.421249986   -9183226.000
 1.528125048   -9184219.000
 1.634999990   -9185211.000
 1.741875052   -9186206.000
 1.848749995   -9187201.000
 1.955625057   -9188194.000
