 -30.00000000   6143580.500
 -29.89312553   6144281.000
 -29.78624916   6144976.000
 -29.67937469   6145669.000
 -29.57250023   6146357.500
 -29.46562576   6147046.500
 -29.35874939   6147738.000
 -29.25187492   6148429.000
 -29.14500046   6149123.500
 -29.03812408   6149822.500
 -28.93124962   6150524.500
 -28.82437515   6151232.000
 -28.71750069   6151941.500
 -28.61062431   6152651.000
 -28.50374985   6153362.000
 -28.39687538   6154069.500
 -28.29000092   6154774.000
 -28.18312454   6155476.500
 -28.07625008   6156176.000
 -27.96937561   6156876.500
 -27.86249924   6157575.000
 -27.75562477   6158274.000
 -27.64875031   6158970.500
 -27.54187584   6159664.000
 -27.43499947   6160356.000
 -27.32812500   6161045.000
 -27.22125053   6161732.000
 -27.11437416   6162420.500
 -27.00749969   6163110.500
 -26.90062523   6163804.000
 -26.79375076   6164504.500
 -26.68687439   6165209.500
 -26.57999992   6165919.000
 -26.47312546   6166628.000
 -26.36624908   6167338.500
 -26.25937462   6168041.000
 -26.15250015   6168740.000
 -26.04562569   6169437.000
 -25.93874931   6170131.500
 -25.83187485   6170826.500
 -25.72500038   6171522.500
 -25.61812592   6172220.000
 -25.51124954   6172920.000
 -25.40437508   6173620.500
 -25.29750061   6174317.500
 -25.19062424   6175014.500
 -25.08374977   6175706.500
 -24.97687531   6176397.000
 -24.87000084   6177087.500
 -24.76312447   6177778.500
 -24.65625000   6178475.000
 -24.54937553   6179174.500
 -24.44249916   6179877.000
 -24.33562469   6180581.500
 -24.22875023   6181285.500
 -24.12187576   6181988.500
 -24.01499939   6182689.500
 -23.90812492   6183388.000
 -23.80125046   6184086.500
 -23.69437408   6184783.500
 -23.58749962   6185480.500
 -23.48062515   6186178.500
 -23.37375069   6186878.000
 -23.26687431   6187578.000
 -23.15999985   6188278.500
 -23.05312538   6188978.000
 -22.94625092   6189677.000
 -22.83937454   6190375.500
 -22.73250008   6191071.000
 -22.62562561   6191765.000
 -22.51874924   6192457.500
 -22.41187477   6193150.500
 -22.30500031   6193843.000
 -22.19812584   6194539.000
 -22.09124947   6195237.500
 -21.98437500   6195937.500
 -21.87750053   6196638.500
 -21.77062416   6197338.500
 -21.66374969   6198039.000
 -21.55687523   6198737.000
 -21.45000076   6199430.500
 -21.34312439   6200123.500
 -21.23624992   6200811.000
 -21.12937546   6201496.000
 -21.02249908   6202178.000
 -20.91562462   6202857.500
 -20.80875015   6203537.000
 -20.70187569   6204218.500
 -20.59499931   6204898.000
 -20.48812485   6205580.000
 -20.38125038   6206264.500
 -20.27437592   6206947.500
 -20.16749954   6207634.000
 -20.06062508   6208322.500
 -19.95375061   6209011.000
 -19.84687424   6209702.500
 -19.73999977   6210393.000
 -19.63312531   6211090.000
 -19.52625084   6211790.000
 -19.41937447   6212492.500
 -19.31250000   6213198.500
 -19.20562553   6213903.500
 -19.09874916   6214605.500
 -18.99187469   6215306.000
 -18.88500023   6216003.500
 -18.77812576   6216698.000
 -18.67124939   6217393.000
 -18.56437492   6218085.500
 -18.45750046   6218780.500
 -18.35062408   6219478.000
 -18.24374962   6220178.000
 -18.13687515   6220880.500
 -18.03000069   6221586.500
 -17.92312431   6222295.000
 -17.81624985   6223004.000
 -17.70937538   6223712.000
 -17.60250092   6224421.000
 -17.49562454   6225128.500
 -17.38875008   6225833.500
 -17.28187561   6226537.500
 -17.17499924   6227238.500
 -17.06812477   6227937.500
 -16.96125031   6228634.500
 -16.85437584   6229327.000
 -16.74749947   6230016.500
 -16.64062500   6230704.000
 -16.53375053   6231389.500
 -16.42687416   6232072.000
 -16.31999969   6232752.500
 -16.21312523   6233433.000
 -16.10625076   6234111.000
 -15.99937534   6234786.500
 -15.89249992   6235459.500
 -15.78562546   6236130.500
 -15.67875004   6236803.500
 -15.57187462   6237478.500
 -15.46500015   6238154.500
 -15.35812473   6238836.500
 -15.25125027   6239524.000
 -15.14437485   6240217.000
 -15.03750038   6240916.000
 -14.93062496   6241620.500
 -14.82374954   6242323.500
 -14.71687508   6243027.500
 -14.60999966   6243729.000
 -14.50312519   6244426.500
 -14.39624977   6245126.500
 -14.28937531   6245822.500
 -14.18249989   6246518.000
 -14.07562542   6247215.000
 -13.96875000   6247909.500
 -13.86187458   6248605.500
 -13.75500011   6249298.500
 -13.64812469   6249991.500
 -13.54125023   6250685.000
 -13.43437481   6251382.500
 -13.32750034   6252082.500
 -13.22062492   6252787.000
 -13.11375046   6253494.500
 -13.00687504   6254207.000
 -12.89999962   6254916.000
 -12.79312515   6255623.500
 -12.68624973   6256327.000
 -12.57937527   6257022.500
 -12.47249985   6257715.000
 -12.36562538   6258401.000
 -12.25874996   6259085.000
 -12.15187454   6259768.000
 -12.04500008   6260447.500
 -11.93812466   6261125.500
 -11.83125019   6261802.500
 -11.72437477   6262475.500
 -11.61750031   6263147.500
 -11.51062489   6263817.500
 -11.40375042   6264490.000
 -11.29687500   6265168.000
 -11.18999958   6265850.500
 -11.08312511   6266538.500
 -10.97624969   6267232.500
 -10.86937523   6267928.000
 -10.76249981   6268621.500
 -10.65562534   6269310.000
 -10.54874992   6269989.500
 -10.44187546   6270665.000
 -10.33500004   6271334.500
 -10.22812462   6272002.500
 -10.12125015   6272672.000
 -10.01437473   6273347.000
 -9.907500267   6274028.000
 -9.800624847   6274713.000
 -9.693750381   6275403.500
 -9.586874962   6276096.000
 -9.479999542   6276789.000
 -9.373125076   6277482.000
 -9.266249657   6278175.500
 -9.159375191   6278870.500
 -9.052499771   6279569.500
 -8.945625305   6280270.500
 -8.838749886   6280976.500
 -8.731875420   6281685.500
 -8.625000000   6282393.000
 -8.518124580   6283098.500
 -8.411250114   6283799.500
 -8.304374695   6284495.500
 -8.197500229   6285185.500
 -8.090624809   6285872.500
 -7.983749866   6286557.000
 -7.876874924   6287241.000
 -7.769999981   6287925.500
 -7.663125038   6288609.000
 -7.556250095   6289294.000
 -7.449375153   6289978.000
 -7.342500210   6290660.000
 -7.235624790   6291340.500
 -7.128749847   6292020.000
 -7.021874905   6292699.500
 -6.914999962   6293381.000
 -6.808125019   6294064.500
 -6.701250076   6294752.000
 -6.594375134   6295442.000
 -6.487500191   6296136.000
 -6.380624771   6296831.000
 -6.273749828   6297525.500
 -6.166874886   6298217.500
 -6.059999943   6298909.000
 -5.953125000   6299597.500
 -5.846250057   6300285.500
 -5.739375114   6300970.500
 -5.632500172   6301655.500
 -5.525625229   6302339.000
 -5.418749809   6303018.500
 -5.311874866   6303696.000
 -5.204999924   6304369.500
 -5.098124981   6305041.000
 -4.991250038   6305711.500
 -4.884375095   6306382.000
 -4.777500153   6307056.000
 -4.670625210   6307730.500
 -4.563749790   6308408.000
 -4.456874847   6309089.500
 -4.349999905   6309770.000
 -4.243124962   6310452.000
 -4.136250019   6311133.000
 -4.029375076   6311814.000
 -3.922499895   6312491.000
 -3.815624952   6313168.500
 -3.708750010   6313844.500
 -3.601875067   6314519.500
 -3.494999886   6315195.000
 -3.388124943   6315866.500
 -3.281250000   6316535.500
 -3.174375057   6317202.500
 -3.067500114   6317863.000
 -2.960624933   6318524.500
 -2.853749990   6319184.500
 -2.746875048   6319848.500
 -2.640000105   6320514.500
 -2.533124924   6321186.000
 -2.426249981   6321862.000
 -2.319375038   6322544.000
 -2.212500095   6323225.000
 -2.105624914   6323909.000
 -1.998749971   6324592.500
 -1.891875029   6325275.500
 -1.784999967   6325961.000
 -1.678125024   6326646.000
 -1.571249962   6327330.500
 -1.464375019   6328015.000
 -1.357499957   6328695.000
 -1.250625014   6329373.500
 -1.143749952   6330048.000
 -1.036875010   6330718.000
 -0.9300000072   6331387.000
 -0.8231250048   6332053.500
 -0.7162500024   6332721.000
 -0.6093750000   6333391.000
 -0.5024999976   6334063.500
 -0.3956249952   6334741.000
 -0.2887499928   6335422.000
 -0.1818750054   6336108.000
 -0.7500000298E-01   6336798.000
 0.3187499940E-01   6337491.000
 0.1387500018   6338187.000
 0.2456250042   6338885.000
 0.3524999917   6339580.500
 0.4593749940   6340272.000
 0.5662500262   6340958.500
 0.6731250286   6341639.500
 0.7799999714   6342314.500
 0.8868749738   6342984.500
 0.9937499762   6343652.000
 1.100625038   6344318.500
 1.207499981   6344987.500
 1.314375043   6345657.000
 1.421249986   6346331.500
 1.528125048   6347007.500
 1.634999990   6347687.500
 1.741875052   6348368.000
 1.848749995   6349050.000
 1.955625057   6349732.500
