 -30.00000000   2242971.500
 -29.89312553   2243250.000
 -29.78624916   2243542.000
 -29.67937469   2243841.250
 -29.57250023   2244138.750
 -29.46562576   2244428.250
 -29.35874939   2244703.250
 -29.25187492   2244968.250
 -29.14500046   2245226.500
 -29.03812408   2245486.500
 -28.93124962   2245755.500
 -28.82437515   2246040.000
 -28.71750069   2246339.250
 -28.61062431   2246651.250
 -28.50374985   2246969.000
 -28.39687538   2247283.000
 -28.29000092   2247584.750
 -28.18312454   2247869.000
 -28.07625008   2248136.750
 -27.96937561   2248392.750
 -27.86249924   2248643.250
 -27.75562477   2248900.000
 -27.64875031   2249171.750
 -27.54187584   2249459.500
 -27.43499947   2249764.250
 -27.32812500   2250078.500
 -27.22125053   2250390.250
 -27.11437416   2250695.000
 -27.00749969   2250983.500
 -26.90062523   2251256.000
 -26.79375076   2251513.750
 -26.68687439   2251766.250
 -26.57999992   2252022.750
 -26.47312546   2252290.250
 -26.36624908   2252573.750
 -26.25937462   2252870.750
 -26.15250015   2253178.500
 -26.04562569   2253488.750
 -25.93874931   2253790.000
 -25.83187485   2254080.000
 -25.72500038   2254350.750
 -25.61812592   2254609.750
 -25.51124954   2254864.000
 -25.40437508   2255119.250
 -25.29750061   2255385.000
 -25.19062424   2255666.000
 -25.08374977   2255964.750
 -24.97687531   2256276.500
 -24.87000084   2256592.750
 -24.76312447   2256908.500
 -24.65625000   2257210.250
 -24.54937553   2257497.750
 -24.44249916   2257770.750
 -24.33562469   2258033.500
 -24.22875023   2258294.500
 -24.12187576   2258557.750
 -24.01499939   2258836.250
 -23.90812492   2259128.500
 -23.80125046   2259433.750
 -23.69437408   2259746.250
 -23.58749962   2260056.750
 -23.48062515   2260354.000
 -23.37375069   2260633.750
 -23.26687431   2260893.500
 -23.15999985   2261135.500
 -23.05312538   2261371.250
 -22.94625092   2261611.250
 -22.83937454   2261862.000
 -22.73250008   2262127.750
 -22.62562561   2262412.250
 -22.51874924   2262705.250
 -22.41187477   2263001.250
 -22.30500031   2263290.000
 -22.19812584   2263564.250
 -22.09124947   2263819.250
 -21.98437500   2264063.250
 -21.87750053   2264299.250
 -21.77062416   2264537.750
 -21.66374969   2264789.250
 -21.55687523   2265057.250
 -21.45000076   2265344.000
 -21.34312439   2265640.000
 -21.23624992   2265939.000
 -21.12937546   2266231.750
 -21.02249908   2266509.250
 -20.91562462   2266769.500
 -20.80875015   2267016.250
 -20.70187569   2267258.000
 -20.59499931   2267504.250
 -20.48812485   2267762.250
 -20.38125038   2268040.250
 -20.27437592   2268334.750
 -20.16749954   2268642.750
 -20.06062508   2268955.250
 -19.95375061   2269259.000
 -19.84687424   2269552.000
 -19.73999977   2269829.000
 -19.63312531   2270090.250
 -19.52625084   2270345.500
 -19.41937447   2270602.000
 -19.31250000   2270864.750
 -19.20562553   2271143.750
 -19.09874916   2271432.500
 -18.99187469   2271727.500
 -18.88500023   2272021.750
 -18.77812576   2272304.750
 -18.67124939   2272571.250
 -18.56437492   2272819.500
 -18.45750046   2273054.500
 -18.35062408   2273280.250
 -18.24374962   2273508.500
 -18.13687515   2273744.750
 -18.03000069   2273994.000
 -17.92312431   2274255.250
 -17.81624985   2274526.750
 -17.70937538   2274803.250
 -17.60250092   2275073.250
 -17.49562454   2275334.500
 -17.38875008   2275581.750
 -17.28187561   2275818.000
 -17.17499924   2276047.500
 -17.06812477   2276275.250
 -16.96125031   2276510.750
 -16.85437584   2276756.250
 -16.74749947   2277014.500
 -16.64062500   2277285.500
 -16.53375053   2277562.500
 -16.42687416   2277838.750
 -16.31999969   2278110.000
 -16.21312523   2278365.750
 -16.10625076   2278607.250
 -15.99937534   2278833.000
 -15.89249992   2279050.250
 -15.78562546   2279269.750
 -15.67875004   2279492.500
 -15.57187462   2279727.750
 -15.46500015   2279974.000
 -15.35812473   2280226.500
 -15.25125027   2280482.250
 -15.14437485   2280733.250
 -15.03750038   2280972.000
 -14.93062496   2281200.750
 -14.82374954   2281419.500
 -14.71687508   2281630.500
 -14.60999966   2281844.000
 -14.50312519   2282063.500
 -14.39624977   2282296.750
 -14.28937531   2282541.250
 -14.18249989   2282794.750
 -14.07562542   2283052.750
 -13.96875000   2283307.750
 -13.86187458   2283553.750
 -13.75500011   2283791.000
 -13.64812469   2284018.500
 -13.54125023   2284240.500
 -13.43437481   2284463.500
 -13.32750034   2284692.250
 -13.22062492   2284931.500
 -13.11375046   2285181.250
 -13.00687504   2285440.750
 -12.89999962   2285705.750
 -12.79312515   2285969.250
 -12.68624973   2286229.500
 -12.57937527   2286482.250
 -12.47249985   2286727.500
 -12.36562538   2286970.750
 -12.25874996   2287214.250
 -12.15187454   2287460.500
 -12.04500008   2287715.750
 -11.93812466   2287981.750
 -11.83125019   2288258.000
 -11.72437477   2288542.000
 -11.61750031   2288830.750
 -11.51062489   2289118.750
 -11.40375042   2289400.500
 -11.29687500   2289673.750
 -11.18999958   2289941.250
 -11.08312511   2290201.750
 -10.97624969   2290460.750
 -10.86937523   2290723.250
 -10.76249981   2290990.750
 -10.65562534   2291269.000
 -10.54874992   2291554.000
 -10.44187546   2291842.500
 -10.33500004   2292133.250
 -10.22812462   2292417.000
 -10.12125015   2292690.500
 -10.01437473   2292952.250
 -9.907500267   2293200.750
 -9.800624847   2293446.250
 -9.693750381   2293693.250
 -9.586874962   2293946.500
 -9.479999542   2294211.750
 -9.373125076   2294487.500
 -9.266249657   2294769.250
 -9.159375191   2295053.250
 -9.052499771   2295333.000
 -8.945625305   2295605.000
 -8.838749886   2295871.000
 -8.731875420   2296126.500
 -8.625000000   2296382.000
 -8.518124580   2296638.750
 -8.411250114   2296903.000
 -8.304374695   2297182.000
 -8.197500229   2297469.000
 -8.090624809   2297766.750
 -7.983749866   2298069.500
 -7.876874924   2298369.250
 -7.769999981   2298663.500
 -7.663125038   2298946.250
 -7.556250095   2299218.500
 -7.449375153   2299481.000
 -7.342500210   2299739.250
 -7.235624790   2299999.500
 -7.128749847   2300263.250
 -7.021874905   2300536.000
 -6.914999962   2300817.750
 -6.808125019   2301103.000
 -6.701250076   2301389.750
 -6.594375134   2301672.000
 -6.487500191   2301945.750
 -6.380624771   2302212.000
 -6.273749828   2302470.250
 -6.166874886   2302725.250
 -6.059999943   2302983.250
 -5.953125000   2303251.500
 -5.846250057   2303534.000
 -5.739375114   2303831.250
 -5.632500172   2304138.500
 -5.525625229   2304449.250
 -5.418749809   2304758.250
 -5.311874866   2305054.000
 -5.204999924   2305339.000
 -5.098124981   2305609.250
 -4.991250038   2305874.250
 -4.884375095   2306140.000
 -4.777500153   2306414.250
 -4.670625210   2306705.500
 -4.563749790   2307012.750
 -4.456874847   2307333.500
 -4.349999905   2307656.000
 -4.243124962   2307970.250
 -4.136250019   2308272.500
 -4.029375076   2308555.500
 -3.922499895   2308822.250
 -3.815624952   2309080.750
 -3.708750010   2309341.000
 -3.601875067   2309610.500
 -3.494999886   2309895.000
 -3.388124943   2310194.750
 -3.281250000   2310502.750
 -3.174375057   2310812.000
 -3.067500114   2311112.750
 -2.960624933   2311396.750
 -2.853749990   2311666.250
 -2.746875048   2311922.750
 -2.640000105   2312175.500
 -2.533124924   2312433.000
 -2.426249981   2312702.250
 -2.319375038   2312983.750
 -2.212500095   2313281.250
 -2.105624914   2313585.250
 -1.998749971   2313889.000
 -1.891875029   2314187.500
 -1.784999967   2314472.500
 -1.678125024   2314745.500
 -1.571249962   2315007.250
 -1.464375019   2315265.000
 -1.357499957   2315523.500
 -1.250625014   2315785.250
 -1.143749952   2316057.000
 -1.036875010   2316334.750
 -0.9300000072   2316616.750
 -0.8231250048   2316901.500
 -0.7162500024   2317185.000
 -0.6093750000   2317462.000
 -0.5024999976   2317732.500
 -0.3956249952   2317993.250
 -0.2887499928   2318248.250
 -0.1818750054   2318497.500
 -0.7500000298E-01   2318745.500
 0.3187499940E-01   2318995.750
 0.1387500018   2319253.250
 0.2456250042   2319519.500
 0.3524999917   2319794.000
 0.4593749940   2320075.000
 0.5662500262   2320359.750
 0.6731250286   2320641.250
 0.7799999714   2320920.250
 0.8868749738   2321193.500
 0.9937499762   2321465.250
 1.100625038   2321738.250
 1.207499981   2322015.000
 1.314375043   2322299.750
 1.421249986   2322593.000
 1.528125048   2322889.250
 1.634999990   2323184.750
 1.741875052   2323474.000
 1.848749995   2323753.000
 1.955625057   2324019.750
