 -30.00000000   1310406.000
 -29.89312553   1310550.375
 -29.78624916   1310691.125
 -29.67937469   1310831.000
 -29.57250023   1310968.750
 -29.46562576   1311111.375
 -29.35874939   1311256.125
 -29.25187492   1311405.875
 -29.14500046   1311556.625
 -29.03812408   1311707.000
 -28.93124962   1311856.750
 -28.82437515   1311999.875
 -28.71750069   1312139.750
 -28.61062431   1312276.625
 -28.50374985   1312410.625
 -28.39687538   1312546.125
 -28.29000092   1312686.000
 -28.18312454   1312828.875
 -28.07625008   1312979.000
 -27.96937561   1313131.000
 -27.86249924   1313284.250
 -27.75562477   1313434.000
 -27.64875031   1313581.500
 -27.54187584   1313723.625
 -27.43499947   1313860.625
 -27.32812500   1313994.750
 -27.22125053   1314130.125
 -27.11437416   1314266.500
 -27.00749969   1314407.375
 -26.90062523   1314552.500
 -26.79375076   1314703.250
 -26.68687439   1314853.750
 -26.57999992   1315001.875
 -26.47312546   1315148.125
 -26.36624908   1315288.750
 -26.25937462   1315423.625
 -26.15250015   1315556.750
 -26.04562569   1315688.875
 -25.93874931   1315822.250
 -25.83187485   1315960.625
 -25.72500038   1316103.375
 -25.61812592   1316251.625
 -25.51124954   1316400.625
 -25.40437508   1316552.625
 -25.29750061   1316702.750
 -25.19062424   1316847.000
 -25.08374977   1316987.125
 -24.97687531   1317121.500
 -24.87000084   1317253.500
 -24.76312447   1317387.500
 -24.65625000   1317523.500
 -24.54937553   1317666.375
 -24.44249916   1317816.000
 -24.33562469   1317968.375
 -24.22875023   1318121.500
 -24.12187576   1318275.500
 -24.01499939   1318423.500
 -23.90812492   1318567.125
 -23.80125046   1318703.750
 -23.69437408   1318838.000
 -23.58749962   1318972.375
 -23.48062515   1319108.625
 -23.37375069   1319251.125
 -23.26687431   1319401.125
 -23.15999985   1319555.750
 -23.05312538   1319712.875
 -22.94625092   1319869.875
 -22.83937454   1320022.875
 -22.73250008   1320168.125
 -22.62562561   1320309.125
 -22.51874924   1320443.625
 -22.41187477   1320579.250
 -22.30500031   1320716.000
 -22.19812584   1320858.875
 -22.09124947   1321006.250
 -21.98437500   1321159.875
 -21.87750053   1321316.750
 -21.77062416   1321473.375
 -21.66374969   1321625.125
 -21.55687523   1321773.000
 -21.45000076   1321914.875
 -21.34312439   1322053.500
 -21.23624992   1322192.125
 -21.12937546   1322333.500
 -21.02249908   1322479.125
 -20.91562462   1322628.500
 -20.80875015   1322783.125
 -20.70187569   1322937.750
 -20.59499931   1323093.500
 -20.48812485   1323245.125
 -20.38125038   1323391.750
 -20.27437592   1323531.000
 -20.16749954   1323668.875
 -20.06062508   1323804.750
 -19.95375061   1323940.625
 -19.84687424   1324080.875
 -19.73999977   1324224.000
 -19.63312531   1324373.500
 -19.52625084   1324525.375
 -19.41937447   1324675.500
 -19.31250000   1324826.375
 -19.20562553   1324971.625
 -19.09874916   1325112.500
 -18.99187469   1325248.875
 -18.88500023   1325381.125
 -18.77812576   1325509.375
 -18.67124939   1325641.000
 -18.56437492   1325774.375
 -18.45750046   1325915.875
 -18.35062408   1326062.750
 -18.24374962   1326213.875
 -18.13687515   1326368.250
 -18.03000069   1326523.000
 -17.92312431   1326675.250
 -17.81624985   1326823.125
 -17.70937538   1326968.875
 -17.60250092   1327112.625
 -17.49562454   1327261.500
 -17.38875008   1327414.625
 -17.28187561   1327576.000
 -17.17499924   1327742.250
 -17.06812477   1327916.250
 -16.96125031   1328092.500
 -16.85437584   1328265.250
 -16.74749947   1328434.375
 -16.64062500   1328598.375
 -16.53375053   1328759.375
 -16.42687416   1328919.125
 -16.31999969   1329083.625
 -16.21312523   1329254.375
 -16.10625076   1329433.375
 -15.99937534   1329618.875
 -15.89249992   1329811.500
 -15.78562546   1330002.500
 -15.67875004   1330189.000
 -15.57187462   1330368.375
 -15.46500015   1330540.375
 -15.35812473   1330704.625
 -15.25125027   1330863.125
 -15.14437485   1331019.500
 -15.03750038   1331175.750
 -14.93062496   1331334.125
 -14.82374954   1331496.875
 -14.71687508   1331659.625
 -14.60999966   1331825.500
 -14.50312519   1331985.375
 -14.39624977   1332142.000
 -14.28937531   1332292.125
 -14.18249989   1332438.125
 -14.07562542   1332582.250
 -13.96875000   1332725.125
 -13.86187458   1332871.500
 -13.75500011   1333023.000
 -13.64812469   1333180.000
 -13.54125023   1333344.625
 -13.43437481   1333508.875
 -13.32750034   1333671.625
 -13.22062492   1333831.875
 -13.11375046   1333985.375
 -13.00687504   1334133.000
 -12.89999962   1334278.000
 -12.79312515   1334420.375
 -12.68624973   1334565.375
 -12.57937527   1334717.250
 -12.47249985   1334875.125
 -12.36562538   1335036.250
 -12.25874996   1335199.125
 -12.15187454   1335363.875
 -12.04500008   1335522.125
 -11.93812466   1335676.750
 -11.83125019   1335823.125
 -11.72437477   1335964.375
 -11.61750031   1336104.250
 -11.51062489   1336244.125
 -11.40375042   1336385.500
 -11.29687500   1336532.875
 -11.18999958   1336684.750
 -11.08312511   1336839.250
 -10.97624969   1336995.500
 -10.86937523   1337150.375
 -10.76249981   1337301.750
 -10.65562534   1337448.750
 -10.54874992   1337593.250
 -10.44187546   1337734.000
 -10.33500004   1337875.500
 -10.22812462   1338018.625
 -10.12125015   1338166.000
 -10.01437473   1338319.875
 -9.907500267   1338476.875
 -9.800624847   1338636.250
 -9.693750381   1338798.625
 -9.586874962   1338955.875
 -9.479999542   1339108.875
 -9.373125076   1339256.500
 -9.266249657   1339396.000
 -9.159375191   1339531.500
 -9.052499771   1339670.250
 -8.945625305   1339809.250
 -8.838749886   1339953.875
 -8.731875420   1340104.750
 -8.625000000   1340258.125
 -8.518124580   1340413.375
 -8.411250114   1340566.875
 -8.304374695   1340714.500
 -8.197500229   1340855.375
 -8.090624809   1340992.500
 -7.983749866   1341125.875
 -7.876874924   1341260.750
 -7.769999981   1341401.750
 -7.663125038   1341549.250
 -7.556250095   1341703.375
 -7.449375153   1341864.750
 -7.342500210   1342026.000
 -7.235624790   1342188.750
 -7.128749847   1342344.500
 -7.021874905   1342495.625
 -6.914999962   1342643.125
 -6.808125019   1342788.250
 -6.701250076   1342931.500
 -6.594375134   1343079.500
 -6.487500191   1343232.500
 -6.380624771   1343390.875
 -6.273749828   1343550.875
 -6.166874886   1343711.875
 -6.059999943   1343870.125
 -5.953125000   1344024.875
 -5.846250057   1344172.125
 -5.739375114   1344314.875
 -5.632500172   1344452.375
 -5.525625229   1344589.750
 -5.418749809   1344728.250
 -5.311874866   1344870.000
 -5.204999924   1345016.375
 -5.098124981   1345168.250
 -4.991250038   1345323.875
 -4.884375095   1345484.125
 -4.777500153   1345642.125
 -4.670625210   1345797.625
 -4.563749790   1345950.875
 -4.456874847   1346101.125
 -4.349999905   1346249.500
 -4.243124962   1346398.125
 -4.136250019   1346549.500
 -4.029375076   1346709.750
 -3.922499895   1346874.875
 -3.815624952   1347043.500
 -3.708750010   1347211.625
 -3.601875067   1347377.875
 -3.494999886   1347537.625
 -3.388124943   1347692.000
 -3.281250000   1347838.750
 -3.174375057   1347983.375
 -3.067500114   1348128.375
 -2.960624933   1348277.875
 -2.853749990   1348430.750
 -2.746875048   1348591.375
 -2.640000105   1348754.750
 -2.533124924   1348919.750
 -2.426249981   1349083.625
 -2.319375038   1349242.250
 -2.212500095   1349394.875
 -2.105624914   1349539.750
 -1.998749971   1349682.375
 -1.891875029   1349823.125
 -1.784999967   1349964.500
 -1.678125024   1350108.625
 -1.571249962   1350259.250
 -1.464375019   1350414.375
 -1.357499957   1350574.000
 -1.250625014   1350735.625
 -1.143749952   1350896.125
 -1.036875010   1351053.750
 -0.9300000072   1351205.500
 -0.8231250048   1351354.125
 -0.7162500024   1351500.375
 -0.6093750000   1351645.625
 -0.5024999976   1351793.750
 -0.3956249952   1351947.625
 -0.2887499928   1352108.250
 -0.1818750054   1352273.625
 -0.7500000298E-01   1352443.000
 0.3187499940E-01   1352614.125
 0.1387500018   1352780.125
 0.2456250042   1352942.000
 0.3524999917   1353093.125
 0.4593749940   1353238.250
 0.5662500262   1353382.125
 0.6731250286   1353524.750
 0.7799999714   1353671.375
 0.8868749738   1353825.625
 0.9937499762   1353986.750
 1.100625038   1354154.000
 1.207499981   1354320.125
 1.314375043   1354481.625
 1.421249986   1354635.375
 1.528125048   1354780.500
 1.634999990   1354919.000
 1.741875052   1355055.500
 1.848749995   1355195.000
 1.955625057   1355343.625
