 -30.00000000   8060149.000
 -29.89312553   8061075.500
 -29.78624916   8062002.000
 -29.67937469   8062930.000
 -29.57250023   8063857.500
 -29.46562576   8064784.500
 -29.35874939   8065714.500
 -29.25187492   8066641.000
 -29.14500046   8067568.000
 -29.03812408   8068496.500
 -28.93124962   8069424.500
 -28.82437515   8070351.500
 -28.71750069   8071279.000
 -28.61062431   8072205.000
 -28.50374985   8073130.000
 -28.39687538   8074056.500
 -28.29000092   8074981.000
 -28.18312454   8075904.500
 -28.07625008   8076827.000
 -27.96937561   8077751.500
 -27.86249924   8078675.000
 -27.75562477   8079600.000
 -27.64875031   8080525.000
 -27.54187584   8081451.000
 -27.43499947   8082376.000
 -27.32812500   8083303.000
 -27.22125053   8084229.500
 -27.11437416   8085156.500
 -27.00749969   8086082.000
 -26.90062523   8087006.500
 -26.79375076   8087929.000
 -26.68687439   8088854.000
 -26.57999992   8089779.500
 -26.47312546   8090700.000
 -26.36624908   8091622.500
 -26.25937462   8092543.000
 -26.15250015   8093463.500
 -26.04562569   8094385.500
 -25.93874931   8095307.000
 -25.83187485   8096227.500
 -25.72500038   8097148.000
 -25.61812592   8098069.000
 -25.51124954   8098992.000
 -25.40437508   8099914.000
 -25.29750061   8100836.500
 -25.19062424   8101758.500
 -25.08374977   8102682.000
 -24.97687531   8103604.000
 -24.87000084   8104526.000
 -24.76312447   8105449.000
 -24.65625000   8106371.000
 -24.54937553   8107292.000
 -24.44249916   8108214.000
 -24.33562469   8109135.500
 -24.22875023   8110054.500
 -24.12187576   8110972.500
 -24.01499939   8111891.000
 -23.90812492   8112810.000
 -23.80125046   8113726.500
 -23.69437408   8114645.500
 -23.58749962   8115561.500
 -23.48062515   8116479.000
 -23.37375069   8117397.000
 -23.26687431   8118316.000
 -23.15999985   8119235.000
 -23.05312538   8120155.500
 -22.94625092   8121074.500
 -22.83937454   8121993.500
 -22.73250008   8122913.000
 -22.62562561   8123830.000
 -22.51874924   8124744.500
 -22.41187477   8125655.500
 -22.30500031   8126565.000
 -22.19812584   8127474.000
 -22.09124947   8128380.000
 -21.98437500   8129287.500
 -21.87750053   8130195.000
 -21.77062416   8131104.000
 -21.66374969   8132015.500
 -21.55687523   8132927.500
 -21.45000076   8133840.000
 -21.34312439   8134752.000
 -21.23624992   8135664.000
 -21.12937546   8136575.000
 -21.02249908   8137487.000
 -20.91562462   8138398.500
 -20.80875015   8139311.000
 -20.70187569   8140223.500
 -20.59499931   8141135.500
 -20.48812485   8142048.500
 -20.38125038   8142963.500
 -20.27437592   8143880.000
 -20.16749954   8144794.500
 -20.06062508   8145712.000
 -19.95375061   8146629.000
 -19.84687424   8147544.500
 -19.73999977   8148463.000
 -19.63312531   8149378.000
 -19.52625084   8150292.000
 -19.41937447   8151202.500
 -19.31250000   8152110.500
 -19.20562553   8153017.000
 -19.09874916   8153920.500
 -18.99187469   8154825.000
 -18.88500023   8155728.000
 -18.77812576   8156633.500
 -18.67124939   8157544.000
 -18.56437492   8158455.500
 -18.45750046   8159370.500
 -18.35062408   8160283.500
 -18.24374962   8161196.500
 -18.13687515   8162105.500
 -18.03000069   8163011.500
 -17.92312431   8163910.000
 -17.81624985   8164805.500
 -17.70937538   8165698.000
 -17.60250092   8166587.000
 -17.49562454   8167479.000
 -17.38875008   8168371.500
 -17.28187561   8169266.500
 -17.17499924   8170163.000
 -17.06812477   8171062.000
 -16.96125031   8171963.500
 -16.85437584   8172867.500
 -16.74749947   8173775.000
 -16.64062500   8174684.000
 -16.53375053   8175594.500
 -16.42687416   8176504.500
 -16.31999969   8177416.000
 -16.21312523   8178326.500
 -16.10625076   8179237.000
 -15.99937534   8180144.000
 -15.89249992   8181050.000
 -15.78562546   8181956.000
 -15.67875004   8182863.000
 -15.57187462   8183765.000
 -15.46500015   8184668.000
 -15.35812473   8185572.000
 -15.25125027   8186474.500
 -15.14437485   8187378.000
 -15.03750038   8188280.500
 -14.93062496   8189185.500
 -14.82374954   8190093.000
 -14.71687508   8191004.000
 -14.60999966   8191919.000
 -14.50312519   8192834.000
 -14.39624977   8193751.000
 -14.28937531   8194666.000
 -14.18249989   8195577.500
 -14.07562542   8196487.500
 -13.96875000   8197395.000
 -13.86187458   8198298.500
 -13.75500011   8199201.500
 -13.64812469   8200104.000
 -13.54125023   8201004.500
 -13.43437481   8201904.000
 -13.32750034   8202803.000
 -13.22062492   8203703.000
 -13.11375046   8204603.000
 -13.00687504   8205505.500
 -12.89999962   8206410.500
 -12.79312515   8207316.000
 -12.68624973   8208223.500
 -12.57937527   8209132.500
 -12.47249985   8210042.500
 -12.36562538   8210950.000
 -12.25874996   8211859.000
 -12.15187454   8212764.000
 -12.04500008   8213670.500
 -11.93812466   8214575.000
 -11.83125019   8215479.000
 -11.72437477   8216384.000
 -11.61750031   8217289.000
 -11.51062489   8218192.500
 -11.40375042   8219094.000
 -11.29687500   8219995.500
 -11.18999958   8220898.000
 -11.08312511   8221799.500
 -10.97624969   8222702.500
 -10.86937523   8223607.500
 -10.76249981   8224513.500
 -10.65562534   8225417.500
 -10.54874992   8226322.000
 -10.44187546   8227223.000
 -10.33500004   8228120.500
 -10.22812462   8229017.500
 -10.12125015   8229910.500
 -10.01437473   8230808.500
 -9.907500267   8231706.000
 -9.800624847   8232604.500
 -9.693750381   8233507.500
 -9.586874962   8234413.000
 -9.479999542   8235318.000
 -9.373125076   8236226.500
 -9.266249657   8237133.500
 -9.159375191   8238037.000
 -9.052499771   8238941.500
 -8.945625305   8239842.500
 -8.838749886   8240740.000
 -8.731875420   8241637.000
 -8.625000000   8242531.500
 -8.518124580   8243425.000
 -8.411250114   8244318.000
 -8.304374695   8245212.500
 -8.197500229   8246107.500
 -8.090624809   8247003.500
 -7.983749866   8247901.000
 -7.876874924   8248800.500
 -7.769999981   8249700.500
 -7.663125038   8250602.000
 -7.556250095   8251502.500
 -7.449375153   8252402.500
 -7.342500210   8253302.500
 -7.235624790   8254203.500
 -7.128749847   8255101.000
 -7.021874905   8255994.500
 -6.914999962   8256889.500
 -6.808125019   8257782.000
 -6.701250076   8258672.000
 -6.594375134   8259565.500
 -6.487500191   8260454.500
 -6.380624771   8261345.000
 -6.273749828   8262235.500
 -6.166874886   8263125.000
 -6.059999943   8264014.500
 -5.953125000   8264906.000
 -5.846250057   8265796.000
 -5.739375114   8266686.500
 -5.632500172   8267579.500
 -5.525625229   8268470.500
 -5.418749809   8269362.500
 -5.311874866   8270257.500
 -5.204999924   8271151.500
 -5.098124981   8272046.000
 -4.991250038   8272944.500
 -4.884375095   8273842.000
 -4.777500153   8274741.500
 -4.670625210   8275640.000
 -4.563749790   8276536.500
 -4.456874847   8277429.000
 -4.349999905   8278322.500
 -4.243124962   8279210.000
 -4.136250019   8280097.000
 -4.029375076   8280983.000
 -3.922499895   8281870.500
 -3.815624952   8282760.500
 -3.708750010   8283652.500
 -3.601875067   8284546.000
 -3.494999886   8285442.500
 -3.388124943   8286336.500
 -3.281250000   8287232.500
 -3.174375057   8288125.500
 -3.067500114   8289016.500
 -2.960624933   8289909.000
 -2.853749990   8290799.000
 -2.746875048   8291691.500
 -2.640000105   8292583.000
 -2.533124924   8293474.500
 -2.426249981   8294366.500
 -2.319375038   8295257.000
 -2.212500095   8296143.500
 -2.105624914   8297030.000
 -1.998749971   8297914.500
 -1.891875029   8298801.000
 -1.784999967   8299690.500
 -1.678125024   8300580.500
 -1.571249962   8301474.500
 -1.464375019   8302372.000
 -1.357499957   8303271.500
 -1.250625014   8304171.500
 -1.143749952   8305072.000
 -1.036875010   8305966.500
 -0.9300000072   8306861.500
 -0.8231250048   8307753.500
 -0.7162500024   8308641.500
 -0.6093750000   8309528.500
 -0.5024999976   8310415.500
 -0.3956249952   8311300.000
 -0.2887499928   8312185.500
 -0.1818750054   8313071.000
 -0.7500000298E-01   8313954.000
 0.3187499940E-01   8314835.000
 0.1387500018   8315717.000
 0.2456250042   8316597.000
 0.3524999917   8317477.500
 0.4593749940   8318360.000
 0.5662500262   8319243.000
 0.6731250286   8320129.500
 0.7799999714   8321022.000
 0.8868749738   8321915.000
 0.9937499762   8322811.000
 1.100625038   8323707.500
 1.207499981   8324606.500
 1.314375043   8325503.000
 1.421249986   8326395.000
 1.528125048   8327287.000
 1.634999990   8328173.000
 1.741875052   8329053.500
 1.848749995   8329932.000
 1.955625057   8330805.000
