 -30.00000000   7423863.500
 -29.89312553   7424716.500
 -29.78624916   7425569.500
 -29.67937469   7426423.000
 -29.57250023   7427276.000
 -29.46562576   7428130.500
 -29.35874939   7428984.000
 -29.25187492   7429838.500
 -29.14500046   7430691.500
 -29.03812408   7431546.000
 -28.93124962   7432401.000
 -28.82437515   7433253.000
 -28.71750069   7434104.500
 -28.61062431   7434956.500
 -28.50374985   7435808.500
 -28.39687538   7436659.500
 -28.29000092   7437510.000
 -28.18312454   7438360.500
 -28.07625008   7439212.000
 -27.96937561   7440062.000
 -27.86249924   7440913.000
 -27.75562477   7441765.500
 -27.64875031   7442616.000
 -27.54187584   7443468.000
 -27.43499947   7444320.500
 -27.32812500   7445172.500
 -27.22125053   7446026.000
 -27.11437416   7446878.000
 -27.00749969   7447730.500
 -26.90062523   7448580.000
 -26.79375076   7449431.000
 -26.68687439   7450280.500
 -26.57999992   7451129.000
 -26.47312546   7451979.000
 -26.36624908   7452826.500
 -26.25937462   7453675.000
 -26.15250015   7454524.500
 -26.04562569   7455371.500
 -25.93874931   7456220.500
 -25.83187485   7457069.000
 -25.72500038   7457915.500
 -25.61812592   7458765.500
 -25.51124954   7459614.000
 -25.40437508   7460463.000
 -25.29750061   7461310.500
 -25.19062424   7462158.000
 -25.08374977   7463007.500
 -24.97687531   7463854.000
 -24.87000084   7464704.000
 -24.76312447   7465551.500
 -24.65625000   7466399.000
 -24.54937553   7467246.500
 -24.44249916   7468093.500
 -24.33562469   7468942.000
 -24.22875023   7469788.000
 -24.12187576   7470634.000
 -24.01499939   7471481.000
 -23.90812492   7472326.000
 -23.80125046   7473173.000
 -23.69437408   7474020.500
 -23.58749962   7474866.000
 -23.48062515   7475711.000
 -23.37375069   7476555.500
 -23.26687431   7477400.500
 -23.15999985   7478243.500
 -23.05312538   7479088.500
 -22.94625092   7479931.500
 -22.83937454   7480774.000
 -22.73250008   7481616.000
 -22.62562561   7482457.000
 -22.51874924   7483297.000
 -22.41187477   7484135.500
 -22.30500031   7484972.500
 -22.19812584   7485809.500
 -22.09124947   7486641.000
 -21.98437500   7487475.000
 -21.87750053   7488309.500
 -21.77062416   7489144.000
 -21.66374969   7489979.500
 -21.55687523   7490817.500
 -21.45000076   7491655.000
 -21.34312439   7492495.000
 -21.23624992   7493334.000
 -21.12937546   7494174.000
 -21.02249908   7495013.500
 -20.91562462   7495853.500
 -20.80875015   7496692.500
 -20.70187569   7497529.500
 -20.59499931   7498366.500
 -20.48812485   7499205.000
 -20.38125038   7500044.000
 -20.27437592   7500884.000
 -20.16749954   7501725.500
 -20.06062508   7502567.000
 -19.95375061   7503412.000
 -19.84687424   7504255.000
 -19.73999977   7505098.000
 -19.63312531   7505940.000
 -19.52625084   7506780.000
 -19.41937447   7507618.500
 -19.31250000   7508456.500
 -19.20562553   7509291.000
 -19.09874916   7510122.500
 -18.99187469   7510952.000
 -18.88500023   7511782.000
 -18.77812576   7512611.500
 -18.67124939   7513441.500
 -18.56437492   7514272.500
 -18.45750046   7515104.000
 -18.35062408   7515937.000
 -18.24374962   7516769.000
 -18.13687515   7517603.500
 -18.03000069   7518433.000
 -17.92312431   7519263.000
 -17.81624985   7520090.000
 -17.70937538   7520917.000
 -17.60250092   7521743.500
 -17.49562454   7522569.500
 -17.38875008   7523393.000
 -17.28187561   7524218.500
 -17.17499924   7525044.000
 -17.06812477   7525869.500
 -16.96125031   7526695.000
 -16.85437584   7527523.000
 -16.74749947   7528351.500
 -16.64062500   7529181.000
 -16.53375053   7530012.000
 -16.42687416   7530843.500
 -16.31999969   7531675.000
 -16.21312523   7532506.000
 -16.10625076   7533339.000
 -15.99937534   7534171.000
 -15.89249992   7535001.000
 -15.78562546   7535833.500
 -15.67875004   7536662.500
 -15.57187462   7537493.000
 -15.46500015   7538322.000
 -15.35812473   7539153.000
 -15.25125027   7539980.000
 -15.14437485   7540811.500
 -15.03750038   7541639.500
 -14.93062496   7542471.000
 -14.82374954   7543301.500
 -14.71687508   7544136.500
 -14.60999966   7544972.000
 -14.50312519   7545809.000
 -14.39624977   7546646.000
 -14.28937531   7547485.500
 -14.18249989   7548324.000
 -14.07562542   7549160.500
 -13.96875000   7549999.000
 -13.86187458   7550834.000
 -13.75500011   7551668.500
 -13.64812469   7552504.000
 -13.54125023   7553336.500
 -13.43437481   7554167.000
 -13.32750034   7554996.000
 -13.22062492   7555826.000
 -13.11375046   7556656.000
 -13.00687504   7557484.500
 -12.89999962   7558315.500
 -12.79312515   7559146.500
 -12.68624973   7559978.000
 -12.57937527   7560810.500
 -12.47249985   7561639.000
 -12.36562538   7562469.000
 -12.25874996   7563297.000
 -12.15187454   7564125.000
 -12.04500008   7564952.000
 -11.93812466   7565780.500
 -11.83125019   7566612.000
 -11.72437477   7567446.000
 -11.61750031   7568277.500
 -11.51062489   7569109.500
 -11.40375042   7569942.500
 -11.29687500   7570772.500
 -11.18999958   7571602.000
 -11.08312511   7572435.000
 -10.97624969   7573265.000
 -10.86937523   7574099.000
 -10.76249981   7574931.500
 -10.65562534   7575765.500
 -10.54874992   7576601.000
 -10.44187546   7577432.500
 -10.33500004   7578264.000
 -10.22812462   7579094.000
 -10.12125015   7579922.000
 -10.01437473   7580747.500
 -9.907500267   7581572.500
 -9.800624847   7582393.500
 -9.693750381   7583216.500
 -9.586874962   7584040.000
 -9.479999542   7584864.000
 -9.373125076   7585687.500
 -9.266249657   7586514.500
 -9.159375191   7587340.000
 -9.052499771   7588167.000
 -8.945625305   7588992.500
 -8.838749886   7589816.000
 -8.731875420   7590637.500
 -8.625000000   7591459.500
 -8.518124580   7592279.500
 -8.411250114   7593099.000
 -8.304374695   7593921.500
 -8.197500229   7594745.500
 -8.090624809   7595572.500
 -7.983749866   7596400.500
 -7.876874924   7597228.500
 -7.769999981   7598057.500
 -7.663125038   7598885.500
 -7.556250095   7599712.000
 -7.449375153   7600538.000
 -7.342500210   7601361.500
 -7.235624790   7602181.500
 -7.128749847   7603002.500
 -7.021874905   7603821.500
 -6.914999962   7604636.500
 -6.808125019   7605453.000
 -6.701250076   7606269.000
 -6.594375134   7607084.000
 -6.487500191   7607901.500
 -6.380624771   7608718.000
 -6.273749828   7609536.000
 -6.166874886   7610357.500
 -6.059999943   7611180.000
 -5.953125000   7612003.500
 -5.846250057   7612830.500
 -5.739375114   7613656.000
 -5.632500172   7614482.500
 -5.525625229   7615308.500
 -5.418749809   7616132.000
 -5.311874866   7616950.500
 -5.204999924   7617768.500
 -5.098124981   7618583.500
 -4.991250038   7619397.500
 -4.884375095   7620212.500
 -4.777500153   7621027.500
 -4.670625210   7621844.500
 -4.563749790   7622662.000
 -4.456874847   7623482.000
 -4.349999905   7624299.500
 -4.243124962   7625119.500
 -4.136250019   7625936.000
 -4.029375076   7626750.000
 -3.922499895   7627565.000
 -3.815624952   7628374.500
 -3.708750010   7629186.500
 -3.601875067   7629999.500
 -3.494999886   7630812.000
 -3.388124943   7631627.500
 -3.281250000   7632445.000
 -3.174375057   7633264.500
 -3.067500114   7634084.500
 -2.960624933   7634909.500
 -2.853749990   7635732.000
 -2.746875048   7636554.500
 -2.640000105   7637374.500
 -2.533124924   7638193.500
 -2.426249981   7639010.500
 -2.319375038   7639822.500
 -2.212500095   7640633.500
 -2.105624914   7641441.000
 -1.998749971   7642248.000
 -1.891875029   7643058.000
 -1.784999967   7643868.000
 -1.678125024   7644683.000
 -1.571249962   7645499.500
 -1.464375019   7646321.500
 -1.357499957   7647145.500
 -1.250625014   7647968.500
 -1.143749952   7648792.500
 -1.036875010   7649614.500
 -0.9300000072   7650435.500
 -0.8231250048   7651249.500
 -0.7162500024   7652062.000
 -0.6093750000   7652869.500
 -0.5024999976   7653676.000
 -0.3956249952   7654481.000
 -0.2887499928   7655284.000
 -0.1818750054   7656086.500
 -0.7500000298E-01   7656895.000
 0.3187499940E-01   7657703.500
 0.1387500018   7658515.000
 0.2456250042   7659329.000
 0.3524999917   7660146.000
 0.4593749940   7660966.500
 0.5662500262   7661786.500
 0.6731250286   7662605.500
 0.7799999714   7663424.000
 0.8868749738   7664242.000
 0.9937499762   7665060.000
 1.100625038   7665873.500
 1.207499981   7666684.000
 1.314375043   7667494.000
 1.421249986   7668298.500
 1.528125048   7669102.000
 1.634999990   7669905.500
 1.741875052   7670707.500
 1.848749995   7671510.500
 1.955625057   7672316.000
