 -30.00000000   9218889.000
 -29.89312553   9219945.000
 -29.78624916   9221000.000
 -29.67937469   9222053.000
 -29.57250023   9223105.000
 -29.46562576   9224160.000
 -29.35874939   9225216.000
 -29.25187492   9226274.000
 -29.14500046   9227336.000
 -29.03812408   9228396.000
 -28.93124962   9229456.000
 -28.82437515   9230515.000
 -28.71750069   9231573.000
 -28.61062431   9232627.000
 -28.50374985   9233681.000
 -28.39687538   9234735.000
 -28.29000092   9235787.000
 -28.18312454   9236843.000
 -28.07625008   9237899.000
 -27.96937561   9238959.000
 -27.86249924   9240018.000
 -27.75562477   9241077.000
 -27.64875031   9242136.000
 -27.54187584   9243194.000
 -27.43499947   9244249.000
 -27.32812500   9245304.000
 -27.22125053   9246356.000
 -27.11437416   9247410.000
 -27.00749969   9248466.000
 -26.90062523   9249521.000
 -26.79375076   9250580.000
 -26.68687439   9251638.000
 -26.57999992   9252694.000
 -26.47312546   9253748.000
 -26.36624908   9254802.000
 -26.25937462   9255849.000
 -26.15250015   9256895.000
 -26.04562569   9257942.000
 -25.93874931   9258990.000
 -25.83187485   9260041.000
 -25.72500038   9261095.000
 -25.61812592   9262153.000
 -25.51124954   9263214.000
 -25.40437508   9264275.000
 -25.29750061   9265335.000
 -25.19062424   9266394.000
 -25.08374977   9267450.000
 -24.97687531   9268504.000
 -24.87000084   9269556.000
 -24.76312447   9270610.000
 -24.65625000   9271665.000
 -24.54937553   9272727.000
 -24.44249916   9273791.000
 -24.33562469   9274857.000
 -24.22875023   9275922.000
 -24.12187576   9276985.000
 -24.01499939   9278049.000
 -23.90812492   9279107.000
 -23.80125046   9280165.000
 -23.69437408   9281222.000
 -23.58749962   9282278.000
 -23.48062515   9283336.000
 -23.37375069   9284396.000
 -23.26687431   9285459.000
 -23.15999985   9286522.000
 -23.05312538   9287586.000
 -22.94625092   9288647.000
 -22.83937454   9289708.000
 -22.73250008   9290767.000
 -22.62562561   9291823.000
 -22.51874924   9292879.000
 -22.41187477   9293936.000
 -22.30500031   9294994.000
 -22.19812584   9296053.000
 -22.09124947   9297112.000
 -21.98437500   9298174.000
 -21.87750053   9299234.000
 -21.77062416   9300295.000
 -21.66374969   9301353.000
 -21.55687523   9302410.000
 -21.45000076   9303465.000
 -21.34312439   9304519.000
 -21.23624992   9305572.000
 -21.12937546   9306626.000
 -21.02249908   9307681.000
 -20.91562462   9308741.000
 -20.80875015   9309802.000
 -20.70187569   9310865.000
 -20.59499931   9311928.000
 -20.48812485   9312989.000
 -20.38125038   9314048.000
 -20.27437592   9315103.000
 -20.16749954   9316154.000
 -20.06062508   9317202.000
 -19.95375061   9318250.000
 -19.84687424   9319298.000
 -19.73999977   9320348.000
 -19.63312531   9321401.000
 -19.52625084   9322456.000
 -19.41937447   9323511.000
 -19.31250000   9324567.000
 -19.20562553   9325620.000
 -19.09874916   9326672.000
 -18.99187469   9327723.000
 -18.88500023   9328775.000
 -18.77812576   9329826.000
 -18.67124939   9330882.000
 -18.56437492   9331942.000
 -18.45750046   9333004.000
 -18.35062408   9334070.000
 -18.24374962   9335136.000
 -18.13687515   9336201.000
 -18.03000069   9337263.000
 -17.92312431   9338322.000
 -17.81624985   9339378.000
 -17.70937538   9340433.000
 -17.60250092   9341490.000
 -17.49562454   9342546.000
 -17.38875008   9343607.000
 -17.28187561   9344670.000
 -17.17499924   9345735.000
 -17.06812477   9346799.000
 -16.96125031   9347863.000
 -16.85437584   9348924.000
 -16.74749947   9349982.000
 -16.64062500   9351037.000
 -16.53375053   9352089.000
 -16.42687416   9353141.000
 -16.31999969   9354194.000
 -16.21312523   9355247.000
 -16.10625076   9356302.000
 -15.99937534   9357358.000
 -15.89249992   9358416.000
 -15.78562546   9359474.000
 -15.67875004   9360532.000
 -15.57187462   9361589.000
 -15.46500015   9362647.000
 -15.35812473   9363704.000
 -15.25125027   9364761.000
 -15.14437485   9365818.000
 -15.03750038   9366879.000
 -14.93062496   9367940.000
 -14.82374954   9369004.000
 -14.71687508   9370071.000
 -14.60999966   9371139.000
 -14.50312519   9372207.000
 -14.39624977   9373273.000
 -14.28937531   9374337.000
 -14.18249989   9375399.000
 -14.07562542   9376459.000
 -13.96875000   9377518.000
 -13.86187458   9378577.000
 -13.75500011   9379636.000
 -13.64812469   9380698.000
 -13.54125023   9381761.000
 -13.43437481   9382825.000
 -13.32750034   9383889.000
 -13.22062492   9384950.000
 -13.11375046   9386011.000
 -13.00687504   9387069.000
 -12.89999962   9388126.000
 -12.79312515   9389181.000
 -12.68624973   9390238.000
 -12.57937527   9391296.000
 -12.47249985   9392357.000
 -12.36562538   9393419.000
 -12.25874996   9394483.000
 -12.15187454   9395547.000
 -12.04500008   9396612.000
 -11.93812466   9397674.000
 -11.83125019   9398734.000
 -11.72437477   9399793.000
 -11.61750031   9400852.000
 -11.51062489   9401910.000
 -11.40375042   9402970.000
 -11.29687500   9404029.000
 -11.18999958   9405090.000
 -11.08312511   9406153.000
 -10.97624969   9407213.000
 -10.86937523   9408273.000
 -10.76249981   9409332.000
 -10.65562534   9410389.000
 -10.54874992   9411443.000
 -10.44187546   9412499.000
 -10.33500004   9413555.000
 -10.22812462   9414612.000
 -10.12125015   9415671.000
 -10.01437473   9416734.000
 -9.907500267   9417802.000
 -9.800624847   9418869.000
 -9.693750381   9419937.000
 -9.586874962   9421005.000
 -9.479999542   9422071.000
 -9.373125076   9423133.000
 -9.266249657   9424194.000
 -9.159375191   9425253.000
 -9.052499771   9426312.000
 -8.945625305   9427374.000
 -8.838749886   9428437.000
 -8.731875420   9429505.000
 -8.625000000   9430572.000
 -8.518124580   9431642.000
 -8.411250114   9432712.000
 -8.304374695   9433781.000
 -8.197500229   9434845.000
 -8.090624809   9435908.000
 -7.983749866   9436970.000
 -7.876874924   9438030.000
 -7.769999981   9439092.000
 -7.663125038   9440158.000
 -7.556250095   9441224.000
 -7.449375153   9442296.000
 -7.342500210   9443368.000
 -7.235624790   9444438.000
 -7.128749847   9445509.000
 -7.021874905   9446578.000
 -6.914999962   9447644.000
 -6.808125019   9448710.000
 -6.701250076   9449775.000
 -6.594375134   9450843.000
 -6.487500191   9451915.000
 -6.380624771   9452990.000
 -6.273749828   9454065.000
 -6.166874886   9455143.000
 -6.059999943   9456219.000
 -5.953125000   9457293.000
 -5.846250057   9458363.000
 -5.739375114   9459430.000
 -5.632500172   9460493.000
 -5.525625229   9461556.000
 -5.418749809   9462618.000
 -5.311874866   9463682.000
 -5.204999924   9464750.000
 -5.098124981   9465822.000
 -4.991250038   9466896.000
 -4.884375095   9467970.000
 -4.777500153   9469045.000
 -4.670625210   9470116.000
 -4.563749790   9471187.000
 -4.456874847   9472251.000
 -4.349999905   9473315.000
 -4.243124962   9474378.000
 -4.136250019   9475443.000
 -4.029375076   9476511.000
 -3.922499895   9477582.000
 -3.815624952   9478657.000
 -3.708750010   9479732.000
 -3.601875067   9480805.000
 -3.494999886   9481876.000
 -3.388124943   9482941.000
 -3.281250000   9484001.000
 -3.174375057   9485058.000
 -3.067500114   9486113.000
 -2.960624933   9487171.000
 -2.853749990   9488228.000
 -2.746875048   9489289.000
 -2.640000105   9490351.000
 -2.533124924   9491415.000
 -2.426249981   9492479.000
 -2.319375038   9493539.000
 -2.212500095   9494598.000
 -2.105624914   9495655.000
 -1.998749971   9496713.000
 -1.891875029   9497772.000
 -1.784999967   9498836.000
 -1.678125024   9499903.000
 -1.571249962   9500975.000
 -1.464375019   9502050.000
 -1.357499957   9503125.000
 -1.250625014   9504200.000
 -1.143749952   9505274.000
 -1.036875010   9506347.000
 -0.9300000072   9507416.000
 -0.8231250048   9508486.000
 -0.7162500024   9509555.000
 -0.6093750000   9510627.000
 -0.5024999976   9511700.000
 -0.3956249952   9512777.000
 -0.2887499928   9513854.000
 -0.1818750054   9514930.000
 -0.7500000298E-01   9516004.000
 0.3187499940E-01   9517077.000
 0.1387500018   9518145.000
 0.2456250042   9519212.000
 0.3524999917   9520276.000
 0.4593749940   9521342.000
 0.5662500262   9522406.000
 0.6731250286   9523475.000
 0.7799999714   9524543.000
 0.8868749738   9525613.000
 0.9937499762   9526685.000
 1.100625038   9527755.000
 1.207499981   9528825.000
 1.314375043   9529892.000
 1.421249986   9530956.000
 1.528125048   9532018.000
 1.634999990   9533080.000
 1.741875052   9534142.000
 1.848749995   9535203.000
 1.955625057   9536265.000
