 -30.00000000   5220127.500
 -29.89312553   5220731.000
 -29.78624916   5221338.000
 -29.67937469   5221948.500
 -29.57250023   5222560.500
 -29.46562576   5223175.500
 -29.35874939   5223792.500
 -29.25187492   5224408.500
 -29.14500046   5225026.500
 -29.03812408   5225643.000
 -28.93124962   5226259.000
 -28.82437515   5226872.500
 -28.71750069   5227485.500
 -28.61062431   5228095.000
 -28.50374985   5228702.000
 -28.39687538   5229307.500
 -28.29000092   5229914.000
 -28.18312454   5230520.000
 -28.07625008   5231129.000
 -27.96937561   5231738.500
 -27.86249924   5232353.500
 -27.75562477   5232970.500
 -27.64875031   5233591.000
 -27.54187584   5234217.000
 -27.43499947   5234842.500
 -27.32812500   5235471.500
 -27.22125053   5236099.000
 -27.11437416   5236726.000
 -27.00749969   5237348.500
 -26.90062523   5237967.500
 -26.79375076   5238583.500
 -26.68687439   5239194.000
 -26.57999992   5239800.000
 -26.47312546   5240403.000
 -26.36624908   5241002.000
 -26.25937462   5241601.000
 -26.15250015   5242198.500
 -26.04562569   5242799.000
 -25.93874931   5243400.500
 -25.83187485   5244005.000
 -25.72500038   5244614.000
 -25.61812592   5245227.000
 -25.51124954   5245843.500
 -25.40437508   5246464.500
 -25.29750061   5247089.000
 -25.19062424   5247714.000
 -25.08374977   5248338.000
 -24.97687531   5248964.500
 -24.87000084   5249587.500
 -24.76312447   5250208.000
 -24.65625000   5250827.500
 -24.54937553   5251443.000
 -24.44249916   5252056.500
 -24.33562469   5252670.000
 -24.22875023   5253280.000
 -24.12187576   5253888.500
 -24.01499939   5254496.500
 -23.90812492   5255103.500
 -23.80125046   5255710.500
 -23.69437408   5256320.000
 -23.58749962   5256931.000
 -23.48062515   5257547.000
 -23.37375069   5258163.000
 -23.26687431   5258784.000
 -23.15999985   5259408.000
 -23.05312538   5260032.500
 -22.94625092   5260659.000
 -22.83937454   5261285.500
 -22.73250008   5261908.000
 -22.62562561   5262530.500
 -22.51874924   5263148.500
 -22.41187477   5263763.000
 -22.30500031   5264376.500
 -22.19812584   5264985.500
 -22.09124947   5265592.000
 -21.98437500   5266195.000
 -21.87750053   5266797.500
 -21.77062416   5267397.500
 -21.66374969   5267996.000
 -21.55687523   5268595.500
 -21.45000076   5269196.000
 -21.34312439   5269797.000
 -21.23624992   5270401.000
 -21.12937546   5271010.000
 -21.02249908   5271621.500
 -20.91562462   5272236.000
 -20.80875015   5272852.000
 -20.70187569   5273470.500
 -20.59499931   5274088.500
 -20.48812485   5274706.500
 -20.38125038   5275324.500
 -20.27437592   5275937.500
 -20.16749954   5276550.000
 -20.06062508   5277160.000
 -19.95375061   5277767.000
 -19.84687424   5278370.000
 -19.73999977   5278969.000
 -19.63312531   5279563.000
 -19.52625084   5280154.500
 -19.41937447   5280745.000
 -19.31250000   5281332.000
 -19.20562553   5281921.000
 -19.09874916   5282511.000
 -18.99187469   5283105.000
 -18.88500023   5283703.000
 -18.77812576   5284306.000
 -18.67124939   5284914.000
 -18.56437492   5285524.000
 -18.45750046   5286137.000
 -18.35062408   5286751.000
 -18.24374962   5287363.500
 -18.13687515   5287976.000
 -18.03000069   5288585.000
 -17.92312431   5289190.000
 -17.81624985   5289792.000
 -17.70937538   5290390.500
 -17.60250092   5290983.000
 -17.49562454   5291574.000
 -17.38875008   5292159.500
 -17.28187561   5292744.500
 -17.17499924   5293328.000
 -17.06812477   5293912.000
 -16.96125031   5294495.500
 -16.85437584   5295084.000
 -16.74749947   5295676.500
 -16.64062500   5296273.000
 -16.53375053   5296875.500
 -16.42687416   5297480.000
 -16.31999969   5298090.000
 -16.21312523   5298697.000
 -16.10625076   5299303.500
 -15.99937534   5299905.500
 -15.89249992   5300499.500
 -15.78562546   5301090.000
 -15.67875004   5301673.500
 -15.57187462   5302252.000
 -15.46500015   5302825.500
 -15.35812473   5303397.000
 -15.25125027   5303967.000
 -15.14437485   5304538.000
 -15.03750038   5305108.000
 -14.93062496   5305680.000
 -14.82374954   5306257.000
 -14.71687508   5306835.500
 -14.60999966   5307420.000
 -14.50312519   5308009.000
 -14.39624977   5308601.000
 -14.28937531   5309196.000
 -14.18249989   5309792.500
 -14.07562542   5310390.500
 -13.96875000   5310984.500
 -13.86187458   5311576.500
 -13.75500011   5312162.500
 -13.64812469   5312746.500
 -13.54125023   5313323.500
 -13.43437481   5313896.500
 -13.32750034   5314467.000
 -13.22062492   5315036.500
 -13.11375046   5315603.500
 -13.00687504   5316171.000
 -12.89999962   5316739.500
 -12.79312515   5317308.500
 -12.68624973   5317879.500
 -12.57937527   5318453.500
 -12.47249985   5319028.000
 -12.36562538   5319606.000
 -12.25874996   5320188.000
 -12.15187454   5320775.500
 -12.04500008   5321367.500
 -11.93812466   5321963.500
 -11.83125019   5322561.500
 -11.72437477   5323160.500
 -11.61750031   5323759.000
 -11.51062489   5324353.500
 -11.40375042   5324944.000
 -11.29687500   5325531.500
 -11.18999958   5326111.500
 -11.08312511   5326686.500
 -10.97624969   5327258.000
 -10.86937523   5327826.000
 -10.76249981   5328391.500
 -10.65562534   5328956.500
 -10.54874992   5329522.000
 -10.44187546   5330090.000
 -10.33500004   5330659.000
 -10.22812462   5331232.000
 -10.12125015   5331811.500
 -10.01437473   5332394.500
 -9.907500267   5332983.500
 -9.800624847   5333578.000
 -9.693750381   5334174.500
 -9.586874962   5334773.000
 -9.479999542   5335369.500
 -9.373125076   5335965.500
 -9.266249657   5336557.500
 -9.159375191   5337144.500
 -9.052499771   5337724.000
 -8.945625305   5338300.500
 -8.838749886   5338869.500
 -8.731875420   5339434.000
 -8.625000000   5339995.500
 -8.518124580   5340554.000
 -8.411250114   5341109.500
 -8.304374695   5341666.500
 -8.197500229   5342224.000
 -8.090624809   5342785.500
 -7.983749866   5343352.000
 -7.876874924   5343925.000
 -7.769999981   5344505.500
 -7.663125038   5345094.500
 -7.556250095   5345688.500
 -7.449375153   5346288.500
 -7.342500210   5346889.000
 -7.235624790   5347489.500
 -7.128749847   5348087.500
 -7.021874905   5348681.000
 -6.914999962   5349269.000
 -6.808125019   5349853.000
 -6.701250076   5350430.500
 -6.594375134   5351004.000
 -6.487500191   5351575.500
 -6.380624771   5352144.500
 -6.273749828   5352713.500
 -6.166874886   5353283.500
 -6.059999943   5353855.000
 -5.953125000   5354432.000
 -5.846250057   5355010.000
 -5.739375114   5355592.500
 -5.632500172   5356176.500
 -5.525625229   5356762.500
 -5.418749809   5357349.500
 -5.311874866   5357938.000
 -5.204999924   5358525.500
 -5.098124981   5359113.000
 -4.991250038   5359697.500
 -4.884375095   5360281.000
 -4.777500153   5360861.000
 -4.670625210   5361436.000
 -4.563749790   5362007.000
 -4.456874847   5362570.500
 -4.349999905   5363131.000
 -4.243124962   5363688.500
 -4.136250019   5364245.500
 -4.029375076   5364802.000
 -3.922499895   5365359.000
 -3.815624952   5365922.000
 -3.708750010   5366487.500
 -3.601875067   5367056.000
 -3.494999886   5367631.500
 -3.388124943   5368210.000
 -3.281250000   5368792.500
 -3.174375057   5369377.500
 -3.067500114   5369963.500
 -2.960624933   5370549.500
 -2.853749990   5371132.500
 -2.746875048   5371712.000
 -2.640000105   5372286.500
 -2.533124924   5372854.500
 -2.426249981   5373418.500
 -2.319375038   5373977.500
 -2.212500095   5374532.500
 -2.105624914   5375084.500
 -1.998749971   5375635.500
 -1.891875029   5376188.500
 -1.784999967   5376743.000
 -1.678125024   5377299.000
 -1.571249962   5377861.000
 -1.464375019   5378425.000
 -1.357499957   5378993.500
 -1.250625014   5379567.000
 -1.143749952   5380143.000
 -1.036875010   5380724.000
 -0.9300000072   5381308.500
 -0.8231250048   5381891.000
 -0.7162500024   5382476.500
 -0.6093750000   5383057.500
 -0.5024999976   5383634.500
 -0.3956249952   5384205.500
 -0.2887499928   5384771.500
 -0.1818750054   5385329.500
 -0.7500000298E-01   5385883.000
 0.3187499940E-01   5386431.000
 0.1387500018   5386978.500
 0.2456250042   5387524.500
 0.3524999917   5388072.000
 0.4593749940   5388623.000
 0.5662500262   5389177.000
 0.6731250286   5389735.000
 0.7799999714   5390295.000
 0.8868749738   5390861.500
 0.9937499762   5391430.000
 1.100625038   5392000.000
 1.207499981   5392571.500
 1.314375043   5393143.000
 1.421249986   5393716.000
 1.528125048   5394286.500
 1.634999990   5394856.000
 1.741875052   5395421.000
 1.848749995   5395983.500
 1.955625057   5396541.000
