 -30.00000000   -3091805.000
 -29.89312553   -3092163.750
 -29.78624916   -3092523.750
 -29.67937469   -3092886.000
 -29.57250023   -3093250.500
 -29.46562576   -3093613.500
 -29.35874939   -3093978.500
 -29.25187492   -3094341.750
 -29.14500046   -3094704.000
 -29.03812408   -3095064.500
 -28.93124962   -3095424.750
 -28.82437515   -3095781.500
 -28.71750069   -3096138.250
 -28.61062431   -3096493.000
 -28.50374985   -3096847.000
 -28.39687538   -3097202.000
 -28.29000092   -3097555.500
 -28.18312454   -3097911.250
 -28.07625008   -3098266.500
 -27.96937561   -3098622.500
 -27.86249924   -3098980.250
 -27.75562477   -3099337.000
 -27.64875031   -3099693.000
 -27.54187584   -3100050.750
 -27.43499947   -3100406.250
 -27.32812500   -3100761.000
 -27.22125053   -3101112.500
 -27.11437416   -3101463.500
 -27.00749969   -3101812.750
 -26.90062523   -3102161.000
 -26.79375076   -3102508.000
 -26.68687439   -3102854.750
 -26.57999992   -3103201.250
 -26.47312546   -3103549.500
 -26.36624908   -3103897.500
 -26.25937462   -3104248.000
 -26.15250015   -3104600.250
 -26.04562569   -3104956.000
 -25.93874931   -3105313.000
 -25.83187485   -3105671.500
 -25.72500038   -3106029.500
 -25.61812592   -3106391.000
 -25.51124954   -3106751.000
 -25.40437508   -3107112.000
 -25.29750061   -3107471.000
 -25.19062424   -3107827.500
 -25.08374977   -3108182.500
 -24.97687531   -3108535.750
 -24.87000084   -3108889.750
 -24.76312447   -3109242.750
 -24.65625000   -3109595.500
 -24.54937553   -3109951.000
 -24.44249916   -3110306.000
 -24.33562469   -3110662.000
 -24.22875023   -3111020.250
 -24.12187576   -3111378.000
 -24.01499939   -3111735.250
 -23.90812492   -3112091.750
 -23.80125046   -3112447.000
 -23.69437408   -3112799.000
 -23.58749962   -3113151.500
 -23.48062515   -3113499.250
 -23.37375069   -3113847.500
 -23.26687431   -3114194.500
 -23.15999985   -3114542.000
 -23.05312538   -3114887.500
 -22.94625092   -3115234.000
 -22.83937454   -3115583.000
 -22.73250008   -3115934.000
 -22.62562561   -3116285.500
 -22.51874924   -3116639.500
 -22.41187477   -3116994.500
 -22.30500031   -3117349.250
 -22.19812584   -3117704.000
 -22.09124947   -3118060.250
 -21.98437500   -3118413.750
 -21.87750053   -3118768.000
 -21.77062416   -3119120.500
 -21.66374969   -3119472.000
 -21.55687523   -3119822.000
 -21.45000076   -3120172.500
 -21.34312439   -3120521.500
 -21.23624992   -3120872.000
 -21.12937546   -3121222.500
 -21.02249908   -3121573.750
 -20.91562462   -3121926.500
 -20.80875015   -3122280.500
 -20.70187569   -3122634.250
 -20.59499931   -3122989.750
 -20.48812485   -3123346.500
 -20.38125038   -3123703.250
 -20.27437592   -3124058.750
 -20.16749954   -3124415.250
 -20.06062508   -3124770.750
 -19.95375061   -3125126.750
 -19.84687424   -3125481.750
 -19.73999977   -3125836.000
 -19.63312531   -3126189.500
 -19.52625084   -3126546.250
 -19.41937447   -3126900.500
 -19.31250000   -3127256.250
 -19.20562553   -3127611.000
 -19.09874916   -3127966.250
 -18.99187469   -3128319.750
 -18.88500023   -3128675.250
 -18.77812576   -3129029.750
 -18.67124939   -3129384.500
 -18.56437492   -3129740.000
 -18.45750046   -3130094.500
 -18.35062408   -3130449.750
 -18.24374962   -3130805.750
 -18.13687515   -3131159.500
 -18.03000069   -3131512.500
 -17.92312431   -3131865.000
 -17.81624985   -3132214.250
 -17.70937538   -3132562.500
 -17.60250092   -3132910.000
 -17.49562454   -3133256.250
 -17.38875008   -3133601.250
 -17.28187561   -3133948.000
 -17.17499924   -3134293.500
 -17.06812477   -3134640.500
 -16.96125031   -3134987.500
 -16.85437584   -3135334.000
 -16.74749947   -3135681.250
 -16.64062500   -3136030.250
 -16.53375053   -3136379.250
 -16.42687416   -3136729.250
 -16.31999969   -3137081.750
 -16.21312523   -3137433.250
 -16.10625076   -3137787.500
 -15.99937534   -3138139.250
 -15.89249992   -3138492.000
 -15.78562546   -3138844.500
 -15.67875004   -3139194.250
 -15.57187462   -3139543.250
 -15.46500015   -3139889.250
 -15.35812473   -3140235.250
 -15.25125027   -3140578.000
 -15.14437485   -3140922.000
 -15.03750038   -3141264.250
 -14.93062496   -3141608.250
 -14.82374954   -3141953.250
 -14.71687508   -3142300.500
 -14.60999966   -3142650.500
 -14.50312519   -3143003.500
 -14.39624977   -3143357.000
 -14.28937531   -3143710.500
 -14.18249989   -3144065.000
 -14.07562542   -3144416.750
 -13.96875000   -3144766.750
 -13.86187458   -3145113.750
 -13.75500011   -3145461.250
 -13.64812469   -3145805.000
 -13.54125023   -3146149.250
 -13.43437481   -3146492.000
 -13.32750034   -3146834.250
 -13.22062492   -3147178.750
 -13.11375046   -3147523.750
 -13.00687504   -3147867.000
 -12.89999962   -3148212.750
 -12.79312515   -3148559.250
 -12.68624973   -3148906.500
 -12.57937527   -3149257.000
 -12.47249985   -3149605.250
 -12.36562538   -3149956.500
 -12.25874996   -3150308.500
 -12.15187454   -3150658.250
 -12.04500008   -3151005.000
 -11.93812466   -3151353.250
 -11.83125019   -3151699.500
 -11.72437477   -3152044.250
 -11.61750031   -3152387.250
 -11.51062489   -3152730.500
 -11.40375042   -3153070.000
 -11.29687500   -3153411.500
 -11.18999958   -3153750.500
 -11.08312511   -3154090.250
 -10.97624969   -3154430.000
 -10.86937523   -3154771.250
 -10.76249981   -3155115.250
 -10.65562534   -3155459.500
 -10.54874992   -3155808.500
 -10.44187546   -3156156.750
 -10.33500004   -3156507.750
 -10.22812462   -3156859.750
 -10.12125015   -3157213.000
 -10.01437473   -3157563.500
 -9.907500267   -3157914.750
 -9.800624847   -3158262.750
 -9.693750381   -3158611.750
 -9.586874962   -3158957.500
 -9.479999542   -3159303.250
 -9.373125076   -3159647.750
 -9.266249657   -3159993.250
 -9.159375191   -3160338.000
 -9.052499771   -3160681.000
 -8.945625305   -3161025.250
 -8.838749886   -3161370.750
 -8.731875420   -3161714.500
 -8.625000000   -3162057.750
 -8.518124580   -3162403.250
 -8.411250114   -3162746.750
 -8.304374695   -3163092.250
 -8.197500229   -3163434.500
 -8.090624809   -3163779.250
 -7.983749866   -3164122.750
 -7.876874924   -3164465.000
 -7.769999981   -3164808.500
 -7.663125038   -3165153.000
 -7.556250095   -3165497.250
 -7.449375153   -3165841.000
 -7.342500210   -3166187.750
 -7.235624790   -3166535.750
 -7.128749847   -3166885.250
 -7.021874905   -3167235.750
 -6.914999962   -3167588.250
 -6.808125019   -3167940.000
 -6.701250076   -3168290.000
 -6.594375134   -3168640.500
 -6.487500191   -3168988.500
 -6.380624771   -3169334.250
 -6.273749828   -3169678.500
 -6.166874886   -3170021.250
 -6.059999943   -3170361.250
 -5.953125000   -3170700.500
 -5.846250057   -3171040.500
 -5.739375114   -3171379.250
 -5.632500172   -3171718.500
 -5.525625229   -3172058.750
 -5.418749809   -3172400.500
 -5.311874866   -3172741.500
 -5.204999924   -3173084.250
 -5.098124981   -3173428.500
 -4.991250038   -3173772.750
 -4.884375095   -3174117.000
 -4.777500153   -3174461.500
 -4.670625210   -3174806.250
 -4.563749790   -3175149.750
 -4.456874847   -3175491.250
 -4.349999905   -3175832.250
 -4.243124962   -3176170.500
 -4.136250019   -3176508.750
 -4.029375076   -3176846.000
 -3.922499895   -3177183.250
 -3.815624952   -3177520.250
 -3.708750010   -3177857.250
 -3.601875067   -3178194.000
 -3.494999886   -3178532.500
 -3.388124943   -3178872.250
 -3.281250000   -3179212.750
 -3.174375057   -3179555.500
 -3.067500114   -3179898.500
 -2.960624933   -3180242.000
 -2.853749990   -3180588.000
 -2.746875048   -3180932.750
 -2.640000105   -3181277.750
 -2.533124924   -3181622.750
 -2.426249981   -3181967.250
 -2.319375038   -3182311.000
 -2.212500095   -3182652.500
 -2.105624914   -3182996.250
 -1.998749971   -3183336.500
 -1.891875029   -3183678.500
 -1.784999967   -3184018.500
 -1.678125024   -3184358.000
 -1.571249962   -3184698.000
 -1.464375019   -3185037.250
 -1.357499957   -3185374.750
 -1.250625014   -3185712.250
 -1.143749952   -3186051.500
 -1.036875010   -3186388.250
 -0.9300000072   -3186727.000
 -0.8231250048   -3187064.500
 -0.7162500024   -3187404.500
 -0.6093750000   -3187743.500
 -0.5024999976   -3188084.250
 -0.3956249952   -3188426.000
 -0.2887499928   -3188769.250
 -0.1818750054   -3189111.000
 -0.7500000298E-01   -3189454.250
 0.3187499940E-01   -3189796.750
 0.1387500018   -3190136.750
 0.2456250042   -3190474.250
 0.3524999917   -3190808.500
 0.4593749940   -3191141.500
 0.5662500262   -3191472.250
 0.6731250286   -3191802.250
 0.7799999714   -3192129.500
 0.8868749738   -3192458.500
 0.9937499762   -3192788.750
 1.100625038   -3193116.500
 1.207499981   -3193450.000
 1.314375043   -3193781.750
 1.421249986   -3194117.750
 1.528125048   -3194454.000
 1.634999990   -3194790.750
 1.741875052   -3195128.000
 1.848749995   -3195462.250
 1.955625057   -3195797.750
