 -30.00000000   -2878212.000
 -29.89312553   -2878540.250
 -29.78624916   -2878866.750
 -29.67937469   -2879191.750
 -29.57250023   -2879515.750
 -29.46562576   -2879838.250
 -29.35874939   -2880161.000
 -29.25187492   -2880482.500
 -29.14500046   -2880806.750
 -29.03812408   -2881130.750
 -28.93124962   -2881454.250
 -28.82437515   -2881779.500
 -28.71750069   -2882104.750
 -28.61062431   -2882430.000
 -28.50374985   -2882755.250
 -28.39687538   -2883082.500
 -28.29000092   -2883407.000
 -28.18312454   -2883731.250
 -28.07625008   -2884059.000
 -27.96937561   -2884384.000
 -27.86249924   -2884712.500
 -27.75562477   -2885039.250
 -27.64875031   -2885367.750
 -27.54187584   -2885698.000
 -27.43499947   -2886028.250
 -27.32812500   -2886360.500
 -27.22125053   -2886690.750
 -27.11437416   -2887024.250
 -27.00749969   -2887357.500
 -26.90062523   -2887692.750
 -26.79375076   -2888026.000
 -26.68687439   -2888360.750
 -26.57999992   -2888696.250
 -26.47312546   -2889029.750
 -26.36624908   -2889364.000
 -26.25937462   -2889700.500
 -26.15250015   -2890037.250
 -26.04562569   -2890375.500
 -25.93874931   -2890712.500
 -25.83187485   -2891051.000
 -25.72500038   -2891388.750
 -25.61812592   -2891726.000
 -25.51124954   -2892065.500
 -25.40437508   -2892402.000
 -25.29750061   -2892740.250
 -25.19062424   -2893077.750
 -25.08374977   -2893415.000
 -24.97687531   -2893751.750
 -24.87000084   -2894089.250
 -24.76312447   -2894428.500
 -24.65625000   -2894767.500
 -24.54937553   -2895107.250
 -24.44249916   -2895448.250
 -24.33562469   -2895789.500
 -24.22875023   -2896133.000
 -24.12187576   -2896473.500
 -24.01499939   -2896814.750
 -23.90812492   -2897153.750
 -23.80125046   -2897491.250
 -23.69437408   -2897829.250
 -23.58749962   -2898164.000
 -23.48062515   -2898497.750
 -23.37375069   -2898830.250
 -23.26687431   -2899162.000
 -23.15999985   -2899494.500
 -23.05312538   -2899826.750
 -22.94625092   -2900160.000
 -22.83937454   -2900493.500
 -22.73250008   -2900827.000
 -22.62562561   -2901161.250
 -22.51874924   -2901493.750
 -22.41187477   -2901827.500
 -22.30500031   -2902157.500
 -22.19812584   -2902487.250
 -22.09124947   -2902815.250
 -21.98437500   -2903142.500
 -21.87750053   -2903470.750
 -21.77062416   -2903798.000
 -21.66374969   -2904127.250
 -21.55687523   -2904455.750
 -21.45000076   -2904786.000
 -21.34312439   -2905117.500
 -21.23624992   -2905448.750
 -21.12937546   -2905780.250
 -21.02249908   -2906111.000
 -20.91562462   -2906441.500
 -20.80875015   -2906770.500
 -20.70187569   -2907099.000
 -20.59499931   -2907426.250
 -20.48812485   -2907752.750
 -20.38125038   -2908078.250
 -20.27437592   -2908403.500
 -20.16749954   -2908728.000
 -20.06062508   -2909052.500
 -19.95375061   -2909377.500
 -19.84687424   -2909703.750
 -19.73999977   -2910031.250
 -19.63312531   -2910358.750
 -19.52625084   -2910685.750
 -19.41937447   -2911013.500
 -19.31250000   -2911340.000
 -19.20562553   -2911666.750
 -19.09874916   -2911993.500
 -18.99187469   -2912318.500
 -18.88500023   -2912644.500
 -18.77812576   -2912968.500
 -18.67124939   -2913294.000
 -18.56437492   -2913619.250
 -18.45750046   -2913947.750
 -18.35062408   -2914277.750
 -18.24374962   -2914610.250
 -18.13687515   -2914943.500
 -18.03000069   -2915279.000
 -17.92312431   -2915614.750
 -17.81624985   -2915954.000
 -17.70937538   -2916292.250
 -17.60250092   -2916631.750
 -17.49562454   -2916970.500
 -17.38875008   -2917308.750
 -17.28187561   -2917647.500
 -17.17499924   -2917984.750
 -17.06812477   -2918323.000
 -16.96125031   -2918663.000
 -16.85437584   -2919005.500
 -16.74749947   -2919349.500
 -16.64062500   -2919696.000
 -16.53375053   -2920044.500
 -16.42687416   -2920395.500
 -16.31999969   -2920749.000
 -16.21312523   -2921103.000
 -16.10625076   -2921456.000
 -15.99937534   -2921809.500
 -15.89249992   -2922161.000
 -15.78562546   -2922509.750
 -15.67875004   -2922857.000
 -15.57187462   -2923204.500
 -15.46500015   -2923550.250
 -15.35812473   -2923899.000
 -15.25125027   -2924248.750
 -15.14437485   -2924600.750
 -15.03750038   -2924958.000
 -14.93062496   -2925316.500
 -14.82374954   -2925677.750
 -14.71687508   -2926040.250
 -14.60999966   -2926403.500
 -14.50312519   -2926766.250
 -14.39624977   -2927124.750
 -14.28937531   -2927483.500
 -14.18249989   -2927837.750
 -14.07562542   -2928191.750
 -13.96875000   -2928542.500
 -13.86187458   -2928892.500
 -13.75500011   -2929243.250
 -13.64812469   -2929595.000
 -13.54125023   -2929946.000
 -13.43437481   -2930297.250
 -13.32750034   -2930647.250
 -13.22062492   -2930995.500
 -13.11375046   -2931342.000
 -13.00687504   -2931685.750
 -12.89999962   -2932023.500
 -12.79312515   -2932358.000
 -12.68624973   -2932687.500
 -12.57937527   -2933014.500
 -12.47249985   -2933336.750
 -12.36562538   -2933657.500
 -12.25874996   -2933976.250
 -12.15187454   -2934293.500
 -12.04500008   -2934609.250
 -11.93812466   -2934925.750
 -11.83125019   -2935240.750
 -11.72437477   -2935554.500
 -11.61750031   -2935869.250
 -11.51062489   -2936181.000
 -11.40375042   -2936490.500
 -11.29687500   -2936799.500
 -11.18999958   -2937108.000
 -11.08312511   -2937413.000
 -10.97624969   -2937717.750
 -10.86937523   -2938020.000
 -10.76249981   -2938323.500
 -10.65562534   -2938625.250
 -10.54874992   -2938927.500
 -10.44187546   -2939229.500
 -10.33500004   -2939534.250
 -10.22812462   -2939839.750
 -10.12125015   -2940147.250
 -10.01437473   -2940457.750
 -9.907500267   -2940771.000
 -9.800624847   -2941086.500
 -9.693750381   -2941404.500
 -9.586874962   -2941722.000
 -9.479999542   -2942039.750
 -9.373125076   -2942357.500
 -9.266249657   -2942674.000
 -9.159375191   -2942989.000
 -9.052499771   -2943302.750
 -8.945625305   -2943615.750
 -8.838749886   -2943929.750
 -8.731875420   -2944242.000
 -8.625000000   -2944558.000
 -8.518124580   -2944875.750
 -8.411250114   -2945196.000
 -8.304374695   -2945519.000
 -8.197500229   -2945841.750
 -8.090624809   -2946167.500
 -7.983749866   -2946493.000
 -7.876874924   -2946820.250
 -7.769999981   -2947144.500
 -7.663125038   -2947469.750
 -7.556250095   -2947796.750
 -7.449375153   -2948122.000
 -7.342500210   -2948450.250
 -7.235624790   -2948779.500
 -7.128749847   -2949111.500
 -7.021874905   -2949447.000
 -6.914999962   -2949784.750
 -6.808125019   -2950125.500
 -6.701250076   -2950469.750
 -6.594375134   -2950817.000
 -6.487500191   -2951166.000
 -6.380624771   -2951518.750
 -6.273749828   -2951873.000
 -6.166874886   -2952227.000
 -6.059999943   -2952582.000
 -5.953125000   -2952939.000
 -5.846250057   -2953294.750
 -5.739375114   -2953651.000
 -5.632500172   -2954007.000
 -5.525625229   -2954362.500
 -5.418749809   -2954717.500
 -5.311874866   -2955071.250
 -5.204999924   -2955424.750
 -5.098124981   -2955777.000
 -4.991250038   -2956128.500
 -4.884375095   -2956480.250
 -4.777500153   -2956830.750
 -4.670625210   -2957178.000
 -4.563749790   -2957526.250
 -4.456874847   -2957871.000
 -4.349999905   -2958216.750
 -4.243124962   -2958562.000
 -4.136250019   -2958906.250
 -4.029375076   -2959252.750
 -3.922499895   -2959598.500
 -3.815624952   -2959945.250
 -3.708750010   -2960292.000
 -3.601875067   -2960641.250
 -3.494999886   -2960991.500
 -3.388124943   -2961341.750
 -3.281250000   -2961690.500
 -3.174375057   -2962040.000
 -3.067500114   -2962389.250
 -2.960624933   -2962738.250
 -2.853749990   -2963087.250
 -2.746875048   -2963436.000
 -2.640000105   -2963783.500
 -2.533124924   -2964132.500
 -2.426249981   -2964480.500
 -2.319375038   -2964828.500
 -2.212500095   -2965174.750
 -2.105624914   -2965518.500
 -1.998749971   -2965859.500
 -1.891875029   -2966200.500
 -1.784999967   -2966537.500
 -1.678125024   -2966872.250
 -1.571249962   -2967207.500
 -1.464375019   -2967540.000
 -1.357499957   -2967870.500
 -1.250625014   -2968199.250
 -1.143749952   -2968528.500
 -1.036875010   -2968856.250
 -0.9300000072   -2969181.750
 -0.8231250048   -2969509.250
 -0.7162500024   -2969835.500
 -0.6093750000   -2970161.000
 -0.5024999976   -2970487.000
 -0.3956249952   -2970815.750
 -0.2887499928   -2971144.000
 -0.1818750054   -2971474.250
 -0.7500000298E-01   -2971807.750
 0.3187499940E-01   -2972143.000
 0.1387500018   -2972479.000
 0.2456250042   -2972816.500
 0.3524999917   -2973156.250
 0.4593749940   -2973495.000
 0.5662500262   -2973832.000
 0.6731250286   -2974170.750
 0.7799999714   -2974506.750
 0.8868749738   -2974843.000
 0.9937499762   -2975181.000
 1.100625038   -2975519.750
 1.207499981   -2975858.000
 1.314375043   -2976199.250
 1.421249986   -2976541.500
 1.528125048   -2976888.500
 1.634999990   -2977236.500
 1.741875052   -2977584.750
 1.848749995   -2977934.250
 1.955625057   -2978284.250
