 -30.00000000   -6072611.500
 -29.89312553   -6073314.000
 -29.78624916   -6074022.000
 -29.67937469   -6074730.500
 -29.57250023   -6075445.500
 -29.46562576   -6076160.000
 -29.35874939   -6076873.500
 -29.25187492   -6077587.500
 -29.14500046   -6078298.000
 -29.03812408   -6079006.000
 -28.93124962   -6079710.500
 -28.82437515   -6080413.000
 -28.71750069   -6081113.000
 -28.61062431   -6081810.000
 -28.50374985   -6082505.000
 -28.39687538   -6083200.500
 -28.29000092   -6083895.500
 -28.18312454   -6084589.500
 -28.07625008   -6085288.000
 -27.96937561   -6085988.500
 -27.86249924   -6086692.000
 -27.75562477   -6087397.500
 -27.64875031   -6088106.500
 -27.54187584   -6088818.000
 -27.43499947   -6089530.000
 -27.32812500   -6090243.500
 -27.22125053   -6090954.500
 -27.11437416   -6091663.000
 -27.00749969   -6092368.500
 -26.90062523   -6093070.500
 -26.79375076   -6093767.500
 -26.68687439   -6094462.000
 -26.57999992   -6095153.000
 -26.47312546   -6095842.000
 -26.36624908   -6096530.000
 -26.25937462   -6097218.000
 -26.15250015   -6097907.000
 -26.04562569   -6098597.000
 -25.93874931   -6099288.500
 -25.83187485   -6099983.500
 -25.72500038   -6100680.000
 -25.61812592   -6101379.000
 -25.51124954   -6102080.500
 -25.40437508   -6102784.500
 -25.29750061   -6103490.000
 -25.19062424   -6104195.500
 -25.08374977   -6104900.500
 -24.97687531   -6105604.000
 -24.87000084   -6106303.500
 -24.76312447   -6107001.500
 -24.65625000   -6107696.000
 -24.54937553   -6108386.500
 -24.44249916   -6109074.500
 -24.33562469   -6109759.500
 -24.22875023   -6110443.000
 -24.12187576   -6111128.500
 -24.01499939   -6111813.000
 -23.90812492   -6112499.500
 -23.80125046   -6113189.500
 -23.69437408   -6113881.500
 -23.58749962   -6114576.500
 -23.48062515   -6115273.500
 -23.37375069   -6115973.000
 -23.26687431   -6116672.000
 -23.15999985   -6117371.500
 -23.05312538   -6118073.000
 -22.94625092   -6118774.500
 -22.83937454   -6119473.000
 -22.73250008   -6120170.500
 -22.62562561   -6120866.500
 -22.51874924   -6121557.500
 -22.41187477   -6122248.500
 -22.30500031   -6122935.000
 -22.19812584   -6123619.000
 -22.09124947   -6124301.000
 -21.98437500   -6124981.500
 -21.87750053   -6125660.000
 -21.77062416   -6126342.500
 -21.66374969   -6127024.500
 -21.55687523   -6127710.000
 -21.45000076   -6128396.000
 -21.34312439   -6129088.000
 -21.23624992   -6129782.500
 -21.12937546   -6130480.500
 -21.02249908   -6131181.500
 -20.91562462   -6131882.500
 -20.80875015   -6132582.000
 -20.70187569   -6133279.500
 -20.59499931   -6133974.500
 -20.48812485   -6134666.000
 -20.38125038   -6135356.000
 -20.27437592   -6136041.000
 -20.16749954   -6136723.000
 -20.06062508   -6137405.000
 -19.95375061   -6138085.000
 -19.84687424   -6138764.000
 -19.73999977   -6139444.000
 -19.63312531   -6140125.500
 -19.52625084   -6140810.000
 -19.41937447   -6141497.000
 -19.31250000   -6142184.000
 -19.20562553   -6142876.000
 -19.09874916   -6143571.000
 -18.99187469   -6144267.500
 -18.88500023   -6144965.000
 -18.77812576   -6145664.000
 -18.67124939   -6146361.500
 -18.56437492   -6147058.500
 -18.45750046   -6147753.000
 -18.35062408   -6148445.500
 -18.24374962   -6149134.000
 -18.13687515   -6149819.500
 -18.03000069   -6150502.500
 -17.92312431   -6151183.000
 -17.81624985   -6151862.500
 -17.70937538   -6152542.500
 -17.60250092   -6153223.000
 -17.49562454   -6153904.500
 -17.38875008   -6154589.000
 -17.28187561   -6155276.500
 -17.17499924   -6155966.000
 -17.06812477   -6156660.000
 -16.96125031   -6157354.500
 -16.85437584   -6158051.500
 -16.74749947   -6158750.500
 -16.64062500   -6159450.500
 -16.53375053   -6160150.500
 -16.42687416   -6160849.500
 -16.31999969   -6161547.500
 -16.21312523   -6162244.500
 -16.10625076   -6162937.500
 -15.99937534   -6163626.500
 -15.89249992   -6164312.500
 -15.78562546   -6164994.000
 -15.67875004   -6165673.000
 -15.57187462   -6166349.000
 -15.46500015   -6167024.500
 -15.35812473   -6167702.000
 -15.25125027   -6168380.500
 -15.14437485   -6169062.500
 -15.03750038   -6169747.000
 -14.93062496   -6170434.000
 -14.82374954   -6171121.500
 -14.71687508   -6171809.500
 -14.60999966   -6172496.500
 -14.50312519   -6173183.500
 -14.39624977   -6173871.000
 -14.28937531   -6174557.500
 -14.18249989   -6175246.000
 -14.07562542   -6175935.500
 -13.96875000   -6176624.000
 -13.86187458   -6177313.000
 -13.75500011   -6177999.000
 -13.64812469   -6178684.500
 -13.54125023   -6179368.500
 -13.43437481   -6180048.500
 -13.32750034   -6180727.000
 -13.22062492   -6181404.500
 -13.11375046   -6182079.000
 -13.00687504   -6182755.500
 -12.89999962   -6183430.000
 -12.79312515   -6184109.000
 -12.68624973   -6184786.500
 -12.57937527   -6185464.000
 -12.47249985   -6186145.500
 -12.36562538   -6186827.000
 -12.25874996   -6187509.000
 -12.15187454   -6188196.000
 -12.04500008   -6188880.500
 -11.93812466   -6189568.000
 -11.83125019   -6190253.500
 -11.72437477   -6190938.000
 -11.61750031   -6191618.000
 -11.51062489   -6192293.000
 -11.40375042   -6192962.500
 -11.29687500   -6193626.000
 -11.18999958   -6194286.500
 -11.08312511   -6194945.000
 -10.97624969   -6195608.500
 -10.86937523   -6196274.000
 -10.76249981   -6196946.500
 -10.65562534   -6197627.000
 -10.54874992   -6198310.000
 -10.44187546   -6198998.000
 -10.33500004   -6199686.000
 -10.22812462   -6200373.000
 -10.12125015   -6201056.500
 -10.01437473   -6201737.000
 -9.907500267   -6202416.000
 -9.800624847   -6203090.000
 -9.693750381   -6203759.500
 -9.586874962   -6204426.000
 -9.479999542   -6205088.500
 -9.373125076   -6205746.500
 -9.266249657   -6206403.000
 -9.159375191   -6207058.000
 -9.052499771   -6207709.500
 -8.945625305   -6208366.000
 -8.838749886   -6209025.000
 -8.731875420   -6209686.500
 -8.625000000   -6210356.000
 -8.518124580   -6211027.000
 -8.411250114   -6211702.500
 -8.304374695   -6212378.500
 -8.197500229   -6213053.000
 -8.090624809   -6213726.000
 -7.983749866   -6214395.000
 -7.876874924   -6215059.500
 -7.769999981   -6215720.500
 -7.663125038   -6216377.000
 -7.556250095   -6217032.500
 -7.449375153   -6217686.000
 -7.342500210   -6218339.000
 -7.235624790   -6218992.500
 -7.128749847   -6219647.500
 -7.021874905   -6220304.500
 -6.914999962   -6220962.500
 -6.808125019   -6221622.000
 -6.701250076   -6222285.500
 -6.594375134   -6222949.500
 -6.487500191   -6223614.500
 -6.380624771   -6224279.000
 -6.273749828   -6224943.000
 -6.166874886   -6225606.000
 -6.059999943   -6226267.000
 -5.953125000   -6226928.000
 -5.846250057   -6227587.500
 -5.739375114   -6228245.000
 -5.632500172   -6228904.000
 -5.525625229   -6229564.500
 -5.418749809   -6230224.000
 -5.311874866   -6230886.000
 -5.204999924   -6231547.000
 -5.098124981   -6232206.000
 -4.991250038   -6232862.000
 -4.884375095   -6233517.000
 -4.777500153   -6234168.500
 -4.670625210   -6234820.500
 -4.563749790   -6235474.000
 -4.456874847   -6236128.500
 -4.349999905   -6236786.000
 -4.243124962   -6237449.000
 -4.136250019   -6238113.500
 -4.029375076   -6238781.000
 -3.922499895   -6239449.500
 -3.815624952   -6240114.000
 -3.708750010   -6240778.500
 -3.601875067   -6241437.500
 -3.494999886   -6242095.000
 -3.388124943   -6242749.500
 -3.281250000   -6243404.000
 -3.174375057   -6244058.500
 -3.067500114   -6244715.500
 -2.960624933   -6245373.500
 -2.853749990   -6246033.500
 -2.746875048   -6246693.000
 -2.640000105   -6247351.500
 -2.533124924   -6248010.000
 -2.426249981   -6248667.000
 -2.319375038   -6249323.500
 -2.212500095   -6249982.000
 -2.105624914   -6250639.500
 -1.998749971   -6251303.000
 -1.891875029   -6251968.500
 -1.784999967   -6252636.000
 -1.678125024   -6253307.000
 -1.571249962   -6253977.500
 -1.464375019   -6254648.500
 -1.357499957   -6255316.000
 -1.250625014   -6255981.000
 -1.143749952   -6256640.500
 -1.036875010   -6257298.500
 -0.9300000072   -6257953.500
 -0.8231250048   -6258610.500
 -0.7162500024   -6259265.000
 -0.6093750000   -6259921.000
 -0.5024999976   -6260577.500
 -0.3956249952   -6261235.000
 -0.2887499928   -6261894.500
 -0.1818750054   -6262551.500
 -0.7500000298E-01   -6263208.000
 0.3187499940E-01   -6263865.000
 0.1387500018   -6264521.500
 0.2456250042   -6265178.500
 0.3524999917   -6265836.500
 0.4593749940   -6266496.500
 0.5662500262   -6267158.000
 0.6731250286   -6267820.000
 0.7799999714   -6268482.500
 0.8868749738   -6269144.000
 0.9937499762   -6269804.500
 1.100625038   -6270461.000
 1.207499981   -6271119.000
 1.314375043   -6271773.500
 1.421249986   -6272430.000
 1.528125048   -6273088.500
 1.634999990   -6273749.000
 1.741875052   -6274413.000
 1.848749995   -6275078.500
 1.955625057   -6275744.500
