 -30.00000000   8754209.000
 -29.89312553   8755213.000
 -29.78624916   8756217.000
 -29.67937469   8757218.000
 -29.57250023   8758219.000
 -29.46562576   8759217.000
 -29.35874939   8760217.000
 -29.25187492   8761216.000
 -29.14500046   8762214.000
 -29.03812408   8763212.000
 -28.93124962   8764210.000
 -28.82437515   8765210.000
 -28.71750069   8766209.000
 -28.61062431   8767213.000
 -28.50374985   8768216.000
 -28.39687538   8769221.000
 -28.29000092   8770226.000
 -28.18312454   8771229.000
 -28.07625008   8772230.000
 -27.96937561   8773231.000
 -27.86249924   8774229.000
 -27.75562477   8775224.000
 -27.64875031   8776215.000
 -27.54187584   8777205.000
 -27.43499947   8778193.000
 -27.32812500   8779180.000
 -27.22125053   8780168.000
 -27.11437416   8781158.000
 -27.00749969   8782151.000
 -26.90062523   8783146.000
 -26.79375076   8784147.000
 -26.68687439   8785149.000
 -26.57999992   8786156.000
 -26.47312546   8787165.000
 -26.36624908   8788175.000
 -26.25937462   8789187.000
 -26.15250015   8790199.000
 -26.04562569   8791209.000
 -25.93874931   8792218.000
 -25.83187485   8793224.000
 -25.72500038   8794229.000
 -25.61812592   8795231.000
 -25.51124954   8796229.000
 -25.40437508   8797226.000
 -25.29750061   8798222.000
 -25.19062424   8799216.000
 -25.08374977   8800210.000
 -24.97687531   8801205.000
 -24.87000084   8802200.000
 -24.76312447   8803199.000
 -24.65625000   8804200.000
 -24.54937553   8805204.000
 -24.44249916   8806210.000
 -24.33562469   8807218.000
 -24.22875023   8808226.000
 -24.12187576   8809235.000
 -24.01499939   8810242.000
 -23.90812492   8811247.000
 -23.80125046   8812249.000
 -23.69437408   8813245.000
 -23.58749962   8814239.000
 -23.48062515   8815228.000
 -23.37375069   8816214.000
 -23.26687431   8817197.000
 -23.15999985   8818179.000
 -23.05312538   8819160.000
 -22.94625092   8820143.000
 -22.83937454   8821126.000
 -22.73250008   8822114.000
 -22.62562561   8823104.000
 -22.51874924   8824097.000
 -22.41187477   8825094.000
 -22.30500031   8826091.000
 -22.19812584   8827090.000
 -22.09124947   8828087.000
 -21.98437500   8829083.000
 -21.87750053   8830079.000
 -21.77062416   8831072.000
 -21.66374969   8832062.000
 -21.55687523   8833051.000
 -21.45000076   8834039.000
 -21.34312439   8835024.000
 -21.23624992   8836009.000
 -21.12937546   8836994.000
 -21.02249908   8837977.000
 -20.91562462   8838960.000
 -20.80875015   8839944.000
 -20.70187569   8840928.000
 -20.59499931   8841916.000
 -20.48812485   8842906.000
 -20.38125038   8843902.000
 -20.27437592   8844901.000
 -20.16749954   8845905.000
 -20.06062508   8846912.000
 -19.95375061   8847920.000
 -19.84687424   8848927.000
 -19.73999977   8849932.000
 -19.63312531   8850933.000
 -19.52625084   8851926.000
 -19.41937447   8852914.000
 -19.31250000   8853897.000
 -19.20562553   8854875.000
 -19.09874916   8855851.000
 -18.99187469   8856828.000
 -18.88500023   8857806.000
 -18.77812576   8858789.000
 -18.67124939   8859778.000
 -18.56437492   8860774.000
 -18.45750046   8861775.000
 -18.35062408   8862780.000
 -18.24374962   8863792.000
 -18.13687515   8864803.000
 -18.03000069   8865815.000
 -17.92312431   8866825.000
 -17.81624985   8867833.000
 -17.70937538   8868837.000
 -17.60250092   8869838.000
 -17.49562454   8870836.000
 -17.38875008   8871831.000
 -17.28187561   8872825.000
 -17.17499924   8873816.000
 -17.06812477   8874810.000
 -16.96125031   8875802.000
 -16.85437584   8876795.000
 -16.74749947   8877789.000
 -16.64062500   8878783.000
 -16.53375053   8879780.000
 -16.42687416   8880779.000
 -16.31999969   8881779.000
 -16.21312523   8882780.000
 -16.10625076   8883784.000
 -15.99937534   8884789.000
 -15.89249992   8885792.000
 -15.78562546   8886795.000
 -15.67875004   8887796.000
 -15.57187462   8888798.000
 -15.46500015   8889798.000
 -15.35812473   8890797.000
 -15.25125027   8891798.000
 -15.14437485   8892799.000
 -15.03750038   8893802.000
 -14.93062496   8894809.000
 -14.82374954   8895817.000
 -14.71687508   8896829.000
 -14.60999966   8897840.000
 -14.50312519   8898854.000
 -14.39624977   8899864.000
 -14.28937531   8900875.000
 -14.18249989   8901882.000
 -14.07562542   8902888.000
 -13.96875000   8903890.000
 -13.86187458   8904891.000
 -13.75500011   8905888.000
 -13.64812469   8906883.000
 -13.54125023   8907876.000
 -13.43437481   8908866.000
 -13.32750034   8909855.000
 -13.22062492   8910843.000
 -13.11375046   8911828.000
 -13.00687504   8912814.000
 -12.89999962   8913800.000
 -12.79312515   8914787.000
 -12.68624973   8915775.000
 -12.57937527   8916763.000
 -12.47249985   8917749.000
 -12.36562538   8918737.000
 -12.25874996   8919721.000
 -12.15187454   8920702.000
 -12.04500008   8921680.000
 -11.93812466   8922656.000
 -11.83125019   8923629.000
 -11.72437477   8924602.000
 -11.61750031   8925577.000
 -11.51062489   8926554.000
 -11.40375042   8927534.000
 -11.29687500   8928517.000
 -11.18999958   8929502.000
 -11.08312511   8930489.000
 -10.97624969   8931477.000
 -10.86937523   8932465.000
 -10.76249981   8933452.000
 -10.65562534   8934436.000
 -10.54874992   8935420.000
 -10.44187546   8936402.000
 -10.33500004   8937382.000
 -10.22812462   8938362.000
 -10.12125015   8939340.000
 -10.01437473   8940315.000
 -9.907500267   8941288.000
 -9.800624847   8942259.000
 -9.693750381   8943226.000
 -9.586874962   8944192.000
 -9.479999542   8945156.000
 -9.373125076   8946119.000
 -9.266249657   8947084.000
 -9.159375191   8948050.000
 -9.052499771   8949020.000
 -8.945625305   8949993.000
 -8.838749886   8950969.000
 -8.731875420   8951949.000
 -8.625000000   8952932.000
 -8.518124580   8953914.000
 -8.411250114   8954897.000
 -8.304374695   8955880.000
 -8.197500229   8956860.000
 -8.090624809   8957836.000
 -7.983749866   8958807.000
 -7.876874924   8959775.000
 -7.769999981   8960737.000
 -7.663125038   8961695.000
 -7.556250095   8962653.000
 -7.449375153   8963608.000
 -7.342500210   8964565.000
 -7.235624790   8965523.000
 -7.128749847   8966488.000
 -7.021874905   8967458.000
 -6.914999962   8968432.000
 -6.808125019   8969410.000
 -6.701250076   8970393.000
 -6.594375134   8971377.000
 -6.487500191   8972359.000
 -6.380624771   8973338.000
 -6.273749828   8974313.000
 -6.166874886   8975280.000
 -6.059999943   8976242.000
 -5.953125000   8977198.000
 -5.846250057   8978152.000
 -5.739375114   8979102.000
 -5.632500172   8980052.000
 -5.525625229   8981007.000
 -5.418749809   8981963.000
 -5.311874866   8982923.000
 -5.204999924   8983885.000
 -5.098124981   8984849.000
 -4.991250038   8985816.000
 -4.884375095   8986783.000
 -4.777500153   8987752.000
 -4.670625210   8988719.000
 -4.563749790   8989686.000
 -4.456874847   8990652.000
 -4.349999905   8991616.000
 -4.243124962   8992581.000
 -4.136250019   8993544.000
 -4.029375076   8994502.000
 -3.922499895   8995458.000
 -3.815624952   8996411.000
 -3.708750010   8997362.000
 -3.601875067   8998314.000
 -3.494999886   8999262.000
 -3.388124943   9000211.000
 -3.281250000   9001162.000
 -3.174375057   9002113.000
 -3.067500114   9003064.000
 -2.960624933   9004019.000
 -2.853749990   9004975.000
 -2.746875048   9005933.000
 -2.640000105   9006892.000
 -2.533124924   9007851.000
 -2.426249981   9008811.000
 -2.319375038   9009771.000
 -2.212500095   9010731.000
 -2.105624914   9011692.000
 -1.998749971   9012653.000
 -1.891875029   9013614.000
 -1.784999967   9014572.000
 -1.678125024   9015531.000
 -1.571249962   9016488.000
 -1.464375019   9017440.000
 -1.357499957   9018390.000
 -1.250625014   9019338.000
 -1.143749952   9020285.000
 -1.036875010   9021231.000
 -0.9300000072   9022180.000
 -0.8231250048   9023131.000
 -0.7162500024   9024088.000
 -0.6093750000   9025048.000
 -0.5024999976   9026014.000
 -0.3956249952   9026984.000
 -0.2887499928   9027958.000
 -0.1818750054   9028932.000
 -0.7500000298E-01   9029900.000
 0.3187499940E-01   9030867.000
 0.1387500018   9031828.000
 0.2456250042   9032784.000
 0.3524999917   9033737.000
 0.4593749940   9034685.000
 0.5662500262   9035630.000
 0.6731250286   9036578.000
 0.7799999714   9037524.000
 0.8868749738   9038473.000
 0.9937499762   9039425.000
 1.100625038   9040385.000
 1.207499981   9041350.000
 1.314375043   9042320.000
 1.421249986   9043296.000
 1.528125048   9044277.000
 1.634999990   9045261.000
 1.741875052   9046249.000
 1.848749995   9047233.000
 1.955625057   9048216.000
