 -30.00000000   73142.53906
 -29.89312553   73152.80469
 -29.78624916   73163.83594
 -29.67937469   73177.38281
 -29.57250023   73189.22656
 -29.46562576   73200.25781
 -29.35874939   73212.12500
 -29.25187492   73221.53125
 -29.14500046   73230.78906
 -29.03812408   73236.17969
 -28.93124962   73240.03906
 -28.82437515   73244.18750
 -28.71750069   73247.91406
 -28.61062431   73252.14062
 -28.50374985   73256.99219
 -28.39687538   73261.72656
 -28.29000092   73270.60938
 -28.18312454   73278.08594
 -28.07625008   73287.26562
 -27.96937561   73296.09375
 -27.86249924   73304.92969
 -27.75562477   73309.66406
 -27.64875031   73313.91406
 -27.54187584   73318.75781
 -27.43499947   73320.28906
 -27.32812500   73323.35156
 -27.22125053   73325.23438
 -27.11437416   73327.96094
 -27.00749969   73332.50781
 -26.90062523   73337.87500
 -26.79375076   73347.92188
 -26.68687439   73357.96875
 -26.57999992   73370.46875
 -26.47312546   73383.20312
 -26.36624908   73395.82812
 -26.25937462   73408.18750
 -26.15250015   73420.57031
 -26.04562569   73429.92188
 -25.93874931   73439.75781
 -25.83187485   73445.39062
 -25.72500038   73449.47656
 -25.61812592   73453.42188
 -25.51124954   73455.82812
 -25.40437508   73459.31250
 -25.29750061   73461.06250
 -25.19062424   73465.69531
 -25.08374977   73470.18750
 -24.97687531   73475.75781
 -24.87000084   73482.39844
 -24.76312447   73492.60938
 -24.65625000   73501.39062
 -24.54937553   73512.79688
 -24.44249916   73523.39062
 -24.33562469   73535.28906
 -24.22875023   73547.50781
 -24.12187576   73559.26562
 -24.01499939   73571.42969
 -23.90812492   73584.87500
 -23.80125046   73594.27344
 -23.69437408   73605.54688
 -23.58749962   73614.40625
 -23.48062515   73621.88281
 -23.37375069   73631.25781
 -23.26687431   73638.84375
 -23.15999985   73645.47656
 -23.05312538   73653.30469
 -22.94625092   73661.10156
 -22.83937454   73667.46875
 -22.73250008   73675.28906
 -22.62562561   73683.79688
 -22.51874924   73690.95312
 -22.41187477   73699.10156
 -22.30500031   73707.11719
 -22.19812584   73717.82031
 -22.09124947   73728.14844
 -21.98437500   73740.71875
 -21.87750053   73751.46875
 -21.77062416   73763.14844
 -21.66374969   73776.26562
 -21.55687523   73786.07812
 -21.45000076   73795.22656
 -21.34312439   73803.54688
 -21.23624992   73810.28906
 -21.12937546   73816.57031
 -21.02249908   73819.59375
 -20.91562462   73823.24219
 -20.80875015   73824.80469
 -20.70187569   73828.85938
 -20.59499931   73833.07812
 -20.48812485   73837.89062
 -20.38125038   73844.50000
 -20.27437592   73851.51562
 -20.16749954   73858.82812
 -20.06062508   73865.92188
 -19.95375061   73874.32031
 -19.84687424   73882.03906
 -19.73999977   73889.48438
 -19.63312531   73895.18750
 -19.52625084   73899.54688
 -19.41937447   73904.03906
 -19.31250000   73906.43750
 -19.20562553   73909.08594
 -19.09874916   73908.63281
 -18.99187469   73909.03125
 -18.88500023   73907.85938
 -18.77812576   73907.05469
 -18.67124939   73907.02344
 -18.56437492   73907.57812
 -18.45750046   73907.72656
 -18.35062408   73909.80469
 -18.24374962   73913.42188
 -18.13687515   73916.80469
 -18.03000069   73921.15625
 -17.92312431   73926.64844
 -17.81624985   73933.23438
 -17.70937538   73937.94531
 -17.60250092   73943.32812
 -17.49562454   73948.11719
 -17.38875008   73952.96094
 -17.28187561   73957.48438
 -17.17499924   73961.75000
 -17.06812477   73966.59375
 -16.96125031   73971.95312
 -16.85437584   73978.15625
 -16.74749947   73984.48438
 -16.64062500   73991.31250
 -16.53375053   73998.86719
 -16.42687416   74007.07031
 -16.31999969   74014.92969
 -16.21312523   74024.95312
 -16.10625076   74032.21094
 -15.99937534   74042.93750
 -15.89249992   74051.44531
 -15.78562546   74060.49219
 -15.67875004   74069.59375
 -15.57187462   74076.33594
 -15.46500015   74083.34375
 -15.35812473   74088.97656
 -15.25125027   74092.46875
 -15.14437485   74095.76562
 -15.03750038   74098.87500
 -14.93062496   74102.60938
 -14.82374954   74107.77344
 -14.71687508   74113.34375
 -14.60999966   74123.72656
 -14.50312519   74135.61719
 -14.39624977   74148.62500
 -14.28937531   74162.90625
 -14.18249989   74179.25781
 -14.07562542   74196.08594
 -13.96875000   74212.97656
 -13.86187458   74228.13281
 -13.75500011   74244.33594
 -13.64812469   74259.70312
 -13.54125023   74274.58594
 -13.43437481   74288.89062
 -13.32750034   74304.39062
 -13.22062492   74316.01562
 -13.11375046   74326.11719
 -13.00687504   74336.82812
 -12.89999962   74345.71094
 -12.79312515   74352.58594
 -12.68624973   74359.57812
 -12.57937527   74366.50781
 -12.47249985   74372.86719
 -12.36562538   74380.34375
 -12.25874996   74385.62500
 -12.15187454   74395.37500
 -12.04500008   74408.29688
 -11.93812466   74419.27344
 -11.83125019   74433.96875
 -11.72437477   74450.85156
 -11.61750031   74468.28125
 -11.51062489   74486.46875
 -11.40375042   74507.04688
 -11.29687500   74525.28906
 -11.18999958   74543.69531
 -11.08312511   74558.30469
 -10.97624969   74569.16406
 -10.86937523   74577.39844
 -10.76249981   74583.32812
 -10.65562534   74586.51562
 -10.54874992   74590.55469
 -10.44187546   74593.90625
 -10.33500004   74600.02344
 -10.22812462   74607.79688
 -10.12125015   74619.34375
 -10.01437473   74633.02344
 -9.907500267   74650.23438
 -9.800624847   74667.14844
 -9.693750381   74685.03906
 -9.586874962   74703.76562
 -9.479999542   74720.30469
 -9.373125076   74735.39844
 -9.266249657   74747.03125
 -9.159375191   74758.62500
 -9.052499771   74765.90625
 -8.945625305   74771.40625
 -8.838749886   74776.43750
 -8.731875420   74776.09375
 -8.625000000   74777.17188
 -8.518124580   74776.53125
 -8.411250114   74775.30469
 -8.304374695   74776.10156
 -8.197500229   74777.39844
 -8.090624809   74780.55469
 -7.983749866   74785.69531
 -7.876874924   74791.70312
 -7.769999981   74798.28906
 -7.663125038   74806.08594
 -7.556250095   74813.50781
 -7.449375153   74822.44531
 -7.342500210   74829.67188
 -7.235624790   74837.00781
 -7.128749847   74842.34375
 -7.021874905   74848.21875
 -6.914999962   74852.89844
 -6.808125019   74857.52344
 -6.701250076   74860.30469
 -6.594375134   74860.78125
 -6.487500191   74861.88281
 -6.380624771   74860.32031
 -6.273749828   74859.65625
 -6.166874886   74859.39844
 -6.059999943   74858.54688
 -5.953125000   74861.84375
 -5.846250057   74865.30469
 -5.739375114   74871.71875
 -5.632500172   74878.83594
 -5.525625229   74888.75781
 -5.418749809   74898.56250
 -5.311874866   74908.83594
 -5.204999924   74918.23438
 -5.098124981   74925.67969
 -4.991250038   74933.23438
 -4.884375095   74938.17969
 -4.777500153   74943.13281
 -4.670625210   74947.35156
 -4.563749790   74950.72656
 -4.456874847   74954.86719
 -4.349999905   74954.69531
 -4.243124962   74954.60156
 -4.136250019   74950.94531
 -4.029375076   74947.32812
 -3.922499895   74942.08594
 -3.815624952   74936.83594
 -3.708750010   74932.85938
 -3.601875067   74929.46094
 -3.494999886   74930.93750
 -3.388124943   74933.25781
 -3.281250000   74936.31250
 -3.174375057   74944.16406
 -3.067500114   74949.27344
 -2.960624933   74957.34375
 -2.853749990   74962.35156
 -2.746875048   74967.21875
 -2.640000105   74969.72656
 -2.533124924   74971.07031
 -2.426249981   74973.88281
 -2.319375038   74974.75781
 -2.212500095   74977.62500
 -2.105624914   74978.94531
 -1.998749971   74982.23438
 -1.891875029   74983.74219
 -1.784999967   74986.39062
 -1.678125024   74987.05469
 -1.571249962   74988.61719
 -1.464375019   74990.22656
 -1.357499957   74991.57031
 -1.250625014   74994.51562
 -1.143749952   74997.86719
 -1.036875010   75003.32812
 -0.9300000072   75007.65625
 -0.8231250048   75011.92969
 -0.7162500024   75015.68750
 -0.6093750000   75019.03906
 -0.5024999976   75020.64844
 -0.3956249952   75020.96094
 -0.2887499928   75021.92188
 -0.1818750054   75023.42969
 -0.7500000298E-01   75024.20312
 0.3187499940E-01   75025.60156
 0.1387500018   75028.60156
 0.2456250042   75030.70312
 0.3524999917   75032.48438
 0.4593749940   75037.05469
 0.5662500262   75039.01562
 0.6731250286   75043.56250
 0.7799999714   75048.61719
 0.8868749738   75055.42188
 0.9937499762   75062.40625
 1.100625038   75070.36719
 1.207499981   75077.75000
 1.314375043   75084.06250
 1.421249986   75091.00000
 1.528125048   75095.10156
 1.634999990   75099.48438
 1.741875052   75102.37500
 1.848749995   75105.67188
 1.955625057   75109.53906
