 -30.00000000   8517552.000
 -29.89312553   8518548.000
 -29.78624916   8519565.000
 -29.67937469   8520596.000
 -29.57250023   8521637.000
 -29.46562576   8522685.000
 -29.35874939   8523732.000
 -29.25187492   8524776.000
 -29.14500046   8525813.000
 -29.03812408   8526838.000
 -28.93124962   8527852.000
 -28.82437515   8528852.000
 -28.71750069   8529842.000
 -28.61062431   8530823.000
 -28.50374985   8531800.000
 -28.39687538   8532777.000
 -28.29000092   8533755.000
 -28.18312454   8534740.000
 -28.07625008   8535734.000
 -27.96937561   8536738.000
 -27.86249924   8537752.000
 -27.75562477   8538776.000
 -27.64875031   8539810.000
 -27.54187584   8540848.000
 -27.43499947   8541894.000
 -27.32812500   8542941.000
 -27.22125053   8543988.000
 -27.11437416   8545031.000
 -27.00749969   8546070.000
 -26.90062523   8547098.000
 -26.79375076   8548117.000
 -26.68687439   8549123.000
 -26.57999992   8550117.000
 -26.47312546   8551101.000
 -26.36624908   8552075.000
 -26.25937462   8553044.000
 -26.15250015   8554010.000
 -26.04562569   8554979.000
 -25.93874931   8555950.000
 -25.83187485   8556931.000
 -25.72500038   8557920.000
 -25.61812592   8558919.000
 -25.51124954   8559929.000
 -25.40437508   8560948.000
 -25.29750061   8561973.000
 -25.19062424   8563005.000
 -25.08374977   8564038.000
 -24.97687531   8565068.000
 -24.87000084   8566095.000
 -24.76312447   8567115.000
 -24.65625000   8568126.000
 -24.54937553   8569127.000
 -24.44249916   8570118.000
 -24.33562469   8571097.000
 -24.22875023   8572068.000
 -24.12187576   8573032.000
 -24.01499939   8573994.000
 -23.90812492   8574956.000
 -23.80125046   8575922.000
 -23.69437408   8576898.000
 -23.58749962   8577883.000
 -23.48062515   8578880.000
 -23.37375069   8579887.000
 -23.26687431   8580905.000
 -23.15999985   8581931.000
 -23.05312538   8582962.000
 -22.94625092   8583994.000
 -22.83937454   8585025.000
 -22.73250008   8586048.000
 -22.62562561   8587064.000
 -22.51874924   8588071.000
 -22.41187477   8589065.000
 -22.30500031   8590046.000
 -22.19812584   8591016.000
 -22.09124947   8591979.000
 -21.98437500   8592934.000
 -21.87750053   8593886.000
 -21.77062416   8594838.000
 -21.66374969   8595794.000
 -21.55687523   8596754.000
 -21.45000076   8597725.000
 -21.34312439   8598705.000
 -21.23624992   8599697.000
 -21.12937546   8600697.000
 -21.02249908   8601704.000
 -20.91562462   8602715.000
 -20.80875015   8603728.000
 -20.70187569   8604739.000
 -20.59499931   8605744.000
 -20.48812485   8606744.000
 -20.38125038   8607736.000
 -20.27437592   8608721.000
 -20.16749954   8609694.000
 -20.06062508   8610662.000
 -19.95375061   8611622.000
 -19.84687424   8612577.000
 -19.73999977   8613527.000
 -19.63312531   8614476.000
 -19.52625084   8615425.000
 -19.41937447   8616376.000
 -19.31250000   8617331.000
 -19.20562553   8618292.000
 -19.09874916   8619258.000
 -18.99187469   8620234.000
 -18.88500023   8621218.000
 -18.77812576   8622206.000
 -18.67124939   8623201.000
 -18.56437492   8624198.000
 -18.45750046   8625197.000
 -18.35062408   8626190.000
 -18.24374962   8627179.000
 -18.13687515   8628163.000
 -18.03000069   8629139.000
 -17.92312431   8630108.000
 -17.81624985   8631067.000
 -17.70937538   8632021.000
 -17.60250092   8632969.000
 -17.49562454   8633914.000
 -17.38875008   8634858.000
 -17.28187561   8635802.000
 -17.17499924   8636750.000
 -17.06812477   8637702.000
 -16.96125031   8638660.000
 -16.85437584   8639626.000
 -16.74749947   8640599.000
 -16.64062500   8641580.000
 -16.53375053   8642567.000
 -16.42687416   8643558.000
 -16.31999969   8644551.000
 -16.21312523   8645542.000
 -16.10625076   8646529.000
 -15.99937534   8647510.000
 -15.89249992   8648483.000
 -15.78562546   8649446.000
 -15.67875004   8650400.000
 -15.57187462   8651346.000
 -15.46500015   8652282.000
 -15.35812473   8653216.000
 -15.25125027   8654145.000
 -15.14437485   8655073.000
 -15.03750038   8656004.000
 -14.93062496   8656938.000
 -14.82374954   8657878.000
 -14.71687508   8658823.000
 -14.60999966   8659776.000
 -14.50312519   8660736.000
 -14.39624977   8661700.000
 -14.28937531   8662670.000
 -14.18249989   8663643.000
 -14.07562542   8664616.000
 -13.96875000   8665588.000
 -13.86187458   8666555.000
 -13.75500011   8667518.000
 -13.64812469   8668474.000
 -13.54125023   8669419.000
 -13.43437481   8670360.000
 -13.32750034   8671293.000
 -13.22062492   8672219.000
 -13.11375046   8673143.000
 -13.00687504   8674066.000
 -12.89999962   8674989.000
 -12.79312515   8675917.000
 -12.68624973   8676849.000
 -12.57937527   8677788.000
 -12.47249985   8678735.000
 -12.36562538   8679689.000
 -12.25874996   8680650.000
 -12.15187454   8681614.000
 -12.04500008   8682583.000
 -11.93812466   8683550.000
 -11.83125019   8684519.000
 -11.72437477   8685485.000
 -11.61750031   8686446.000
 -11.51062489   8687404.000
 -11.40375042   8688353.000
 -11.29687500   8689298.000
 -11.18999958   8690237.000
 -11.08312511   8691168.000
 -10.97624969   8692096.000
 -10.86937523   8693020.000
 -10.76249981   8693944.000
 -10.65562534   8694871.000
 -10.54874992   8695802.000
 -10.44187546   8696740.000
 -10.33500004   8697688.000
 -10.22812462   8698644.000
 -10.12125015   8699609.000
 -10.01437473   8700582.000
 -9.907500267   8701560.000
 -9.800624847   8702540.000
 -9.693750381   8703519.000
 -9.586874962   8704494.000
 -9.479999542   8705464.000
 -9.373125076   8706428.000
 -9.266249657   8707385.000
 -9.159375191   8708335.000
 -9.052499771   8709281.000
 -8.945625305   8710219.000
 -8.838749886   8711155.000
 -8.731875420   8712087.000
 -8.625000000   8713020.000
 -8.518124580   8713953.000
 -8.411250114   8714889.000
 -8.304374695   8715835.000
 -8.197500229   8716788.000
 -8.090624809   8717750.000
 -7.983749866   8718721.000
 -7.876874924   8719702.000
 -7.769999981   8720687.000
 -7.663125038   8721676.000
 -7.556250095   8722667.000
 -7.449375153   8723652.000
 -7.342500210   8724633.000
 -7.235624790   8725604.000
 -7.128749847   8726569.000
 -7.021874905   8727524.000
 -6.914999962   8728472.000
 -6.808125019   8729415.000
 -6.701250076   8730353.000
 -6.594375134   8731287.000
 -6.487500191   8732224.000
 -6.380624771   8733162.000
 -6.273749828   8734101.000
 -6.166874886   8735048.000
 -6.059999943   8735999.000
 -5.953125000   8736956.000
 -5.846250057   8737922.000
 -5.739375114   8738893.000
 -5.632500172   8739870.000
 -5.525625229   8740853.000
 -5.418749809   8741838.000
 -5.311874866   8742821.000
 -5.204999924   8743799.000
 -5.098124981   8744773.000
 -4.991250038   8745737.000
 -4.884375095   8746692.000
 -4.777500153   8747641.000
 -4.670625210   8748583.000
 -4.563749790   8749521.000
 -4.456874847   8750458.000
 -4.349999905   8751396.000
 -4.243124962   8752333.000
 -4.136250019   8753277.000
 -4.029375076   8754224.000
 -3.922499895   8755175.000
 -3.815624952   8756135.000
 -3.708750010   8757099.000
 -3.601875067   8758069.000
 -3.494999886   8759044.000
 -3.388124943   8760027.000
 -3.281250000   8761011.000
 -3.174375057   8761994.000
 -3.067500114   8762977.000
 -2.960624933   8763956.000
 -2.853749990   8764926.000
 -2.746875048   8765889.000
 -2.640000105   8766841.000
 -2.533124924   8767786.000
 -2.426249981   8768723.000
 -2.319375038   8769653.000
 -2.212500095   8770583.000
 -2.105624914   8771510.000
 -1.998749971   8772440.000
 -1.891875029   8773373.000
 -1.784999967   8774308.000
 -1.678125024   8775248.000
 -1.571249962   8776191.000
 -1.464375019   8777140.000
 -1.357499957   8778091.000
 -1.250625014   8779046.000
 -1.143749952   8780005.000
 -1.036875010   8780965.000
 -0.9300000072   8781927.000
 -0.8231250048   8782890.000
 -0.7162500024   8783852.000
 -0.6093750000   8784810.000
 -0.5024999976   8785764.000
 -0.3956249952   8786708.000
 -0.2887499928   8787648.000
 -0.1818750054   8788579.000
 -0.7500000298E-01   8789503.000
 0.3187499940E-01   8790425.000
 0.1387500018   8791344.000
 0.2456250042   8792263.000
 0.3524999917   8793189.000
 0.4593749940   8794122.000
 0.5662500262   8795061.000
 0.6731250286   8796010.000
 0.7799999714   8796967.000
 0.8868749738   8797929.000
 0.9937499762   8798897.000
 1.100625038   8799867.000
 1.207499981   8800839.000
 1.314375043   8801806.000
 1.421249986   8802770.000
 1.528125048   8803730.000
 1.634999990   8804682.000
 1.741875052   8805629.000
 1.848749995   8806567.000
 1.955625057   8807496.000
