 -30.00000000   -7017328.000
 -29.89312553   -7018111.000
 -29.78624916   -7018875.500
 -29.67937469   -7019632.000
 -29.57250023   -7020390.000
 -29.46562576   -7021160.000
 -29.35874939   -7021944.000
 -29.25187492   -7022740.500
 -29.14500046   -7023542.500
 -29.03812408   -7024344.000
 -28.93124962   -7025135.500
 -28.82437515   -7025910.000
 -28.71750069   -7026670.500
 -28.61062431   -7027417.500
 -28.50374985   -7028163.500
 -28.39687538   -7028917.000
 -28.29000092   -7029683.000
 -28.18312454   -7030466.000
 -28.07625008   -7031266.500
 -27.96937561   -7032074.500
 -27.86249924   -7032883.500
 -27.75562477   -7033684.000
 -27.64875031   -7034468.500
 -27.54187584   -7035238.000
 -27.43499947   -7035996.000
 -27.32812500   -7036746.500
 -27.22125053   -7037501.000
 -27.11437416   -7038269.000
 -27.00749969   -7039052.000
 -26.90062523   -7039852.000
 -26.79375076   -7040661.500
 -26.68687439   -7041471.000
 -26.57999992   -7042277.000
 -26.47312546   -7043070.500
 -26.36624908   -7043848.000
 -26.25937462   -7044612.500
 -26.15250015   -7045366.500
 -26.04562569   -7046123.000
 -25.93874931   -7046889.000
 -25.83187485   -7047667.000
 -25.72500038   -7048460.000
 -25.61812592   -7049264.000
 -25.51124954   -7050072.000
 -25.40437508   -7050875.000
 -25.29750061   -7051670.000
 -25.19062424   -7052449.500
 -25.08374977   -7053215.500
 -24.97687531   -7053976.000
 -24.87000084   -7054734.000
 -24.76312447   -7055500.000
 -24.65625000   -7056280.000
 -24.54937553   -7057074.000
 -24.44249916   -7057881.000
 -24.33562469   -7058691.000
 -24.22875023   -7059501.000
 -24.12187576   -7060304.000
 -24.01499939   -7061092.500
 -23.90812492   -7061868.500
 -23.80125046   -7062635.500
 -23.69437408   -7063399.000
 -23.58749962   -7064169.000
 -23.48062515   -7064946.500
 -23.37375069   -7065740.500
 -23.26687431   -7066545.500
 -23.15999985   -7067357.000
 -23.05312538   -7068167.000
 -22.94625092   -7068969.000
 -22.83937454   -7069761.000
 -22.73250008   -7070541.000
 -22.62562561   -7071314.000
 -22.51874924   -7072085.000
 -22.41187477   -7072859.500
 -22.30500031   -7073646.500
 -22.19812584   -7074445.500
 -22.09124947   -7075256.500
 -21.98437500   -7076077.000
 -21.87750053   -7076898.500
 -21.77062416   -7077717.500
 -21.66374969   -7078528.500
 -21.55687523   -7079327.500
 -21.45000076   -7080119.000
 -21.34312439   -7080903.500
 -21.23624992   -7081689.500
 -21.12937546   -7082480.000
 -21.02249908   -7083281.500
 -20.91562462   -7084093.000
 -20.80875015   -7084912.000
 -20.70187569   -7085738.000
 -20.59499931   -7086561.500
 -20.48812485   -7087381.000
 -20.38125038   -7088190.500
 -20.27437592   -7088989.500
 -20.16749954   -7089781.000
 -20.06062508   -7090571.000
 -19.95375061   -7091363.000
 -19.84687424   -7092162.500
 -19.73999977   -7092973.000
 -19.63312531   -7093793.500
 -19.52625084   -7094617.500
 -19.41937447   -7095442.000
 -19.31250000   -7096262.500
 -19.20562553   -7097076.000
 -19.09874916   -7097879.500
 -18.99187469   -7098673.000
 -18.88500023   -7099461.500
 -18.77812576   -7100250.500
 -18.67124939   -7101045.000
 -18.56437492   -7101847.500
 -18.45750046   -7102658.500
 -18.35062408   -7103479.000
 -18.24374962   -7104300.000
 -18.13687515   -7105121.500
 -18.03000069   -7105934.500
 -17.92312431   -7106741.000
 -17.81624985   -7107535.500
 -17.70937538   -7108321.500
 -17.60250092   -7109105.000
 -17.49562454   -7109893.500
 -17.38875008   -7110686.500
 -17.28187561   -7111490.000
 -17.17499924   -7112301.000
 -17.06812477   -7113117.500
 -16.96125031   -7113935.000
 -16.85437584   -7114746.500
 -16.74749947   -7115548.500
 -16.64062500   -7116341.500
 -16.53375053   -7117127.000
 -16.42687416   -7117907.000
 -16.31999969   -7118690.000
 -16.21312523   -7119480.000
 -16.10625076   -7120278.000
 -15.99937534   -7121086.000
 -15.89249992   -7121899.500
 -15.78562546   -7122716.500
 -15.67875004   -7123527.000
 -15.57187462   -7124330.500
 -15.46500015   -7125124.000
 -15.35812473   -7125907.500
 -15.25125027   -7126686.500
 -15.14437485   -7127466.500
 -15.03750038   -7128251.000
 -14.93062496   -7129047.000
 -14.82374954   -7129853.000
 -14.71687508   -7130666.000
 -14.60999966   -7131482.500
 -14.50312519   -7132298.500
 -14.39624977   -7133105.000
 -14.28937531   -7133900.000
 -14.18249989   -7134685.500
 -14.07562542   -7135464.000
 -13.96875000   -7136241.000
 -13.86187458   -7137021.500
 -13.75500011   -7137813.000
 -13.64812469   -7138614.000
 -13.54125023   -7139423.000
 -13.43437481   -7140238.500
 -13.32750034   -7141052.000
 -13.22062492   -7141860.000
 -13.11375046   -7142657.500
 -13.00687504   -7143445.000
 -12.89999962   -7144223.500
 -12.79312515   -7144998.500
 -12.68624973   -7145778.500
 -12.57937527   -7146563.500
 -12.47249985   -7147362.000
 -12.36562538   -7148169.000
 -12.25874996   -7148978.000
 -12.15187454   -7149790.000
 -12.04500008   -7150595.000
 -11.93812466   -7151390.000
 -11.83125019   -7152175.500
 -11.72437477   -7152952.500
 -11.61750031   -7153727.000
 -11.51062489   -7154507.000
 -11.40375042   -7155290.000
 -11.29687500   -7156086.000
 -11.18999958   -7156892.000
 -11.08312511   -7157705.500
 -10.97624969   -7158520.000
 -10.86937523   -7159327.000
 -10.76249981   -7160125.500
 -10.65562534   -7160912.500
 -10.54874992   -7161689.000
 -10.44187546   -7162461.000
 -10.33500004   -7163236.500
 -10.22812462   -7164018.000
 -10.12125015   -7164813.500
 -10.01437473   -7165617.500
 -9.907500267   -7166431.000
 -9.800624847   -7167246.000
 -9.693750381   -7168057.000
 -9.586874962   -7168857.500
 -9.479999542   -7169649.000
 -9.373125076   -7170431.000
 -9.266249657   -7171209.500
 -9.159375191   -7171992.000
 -9.052499771   -7172781.000
 -8.945625305   -7173580.500
 -8.838749886   -7174392.000
 -8.731875420   -7175211.500
 -8.625000000   -7176032.500
 -8.518124580   -7176848.000
 -8.411250114   -7177655.500
 -8.304374695   -7178450.500
 -8.197500229   -7179239.000
 -8.090624809   -7180023.500
 -7.983749866   -7180808.500
 -7.876874924   -7181603.000
 -7.769999981   -7182409.500
 -7.663125038   -7183228.500
 -7.556250095   -7184054.000
 -7.449375153   -7184885.000
 -7.342500210   -7185709.500
 -7.235624790   -7186527.500
 -7.128749847   -7187336.500
 -7.021874905   -7188136.000
 -6.914999962   -7188932.000
 -6.808125019   -7189728.000
 -6.701250076   -7190530.000
 -6.594375134   -7191342.500
 -6.487500191   -7192166.000
 -6.380624771   -7192997.000
 -6.273749828   -7193827.000
 -6.166874886   -7194655.000
 -6.059999943   -7195473.500
 -5.953125000   -7196282.500
 -5.846250057   -7197083.000
 -5.739375114   -7197879.500
 -5.632500172   -7198678.000
 -5.525625229   -7199480.500
 -5.418749809   -7200291.000
 -5.311874866   -7201109.500
 -5.204999924   -7201935.000
 -5.098124981   -7202763.000
 -4.991250038   -7203589.500
 -4.884375095   -7204409.500
 -4.777500153   -7205224.500
 -4.670625210   -7206030.500
 -4.563749790   -7206834.500
 -4.456874847   -7207639.000
 -4.349999905   -7208450.000
 -4.243124962   -7209269.000
 -4.136250019   -7210094.500
 -4.029375076   -7210928.500
 -3.922499895   -7211764.500
 -3.815624952   -7212600.500
 -3.708750010   -7213431.500
 -3.601875067   -7214256.500
 -3.494999886   -7215073.500
 -3.388124943   -7215886.000
 -3.281250000   -7216696.000
 -3.174375057   -7217508.500
 -3.067500114   -7218325.500
 -2.960624933   -7219152.500
 -2.853749990   -7219984.500
 -2.746875048   -7220820.500
 -2.640000105   -7221656.500
 -2.533124924   -7222490.500
 -2.426249981   -7223319.000
 -2.319375038   -7224140.000
 -2.212500095   -7224956.000
 -2.105624914   -7225769.500
 -1.998749971   -7226584.000
 -1.891875029   -7227403.500
 -1.784999967   -7228229.500
 -1.678125024   -7229059.500
 -1.571249962   -7229895.500
 -1.464375019   -7230731.000
 -1.357499957   -7231565.000
 -1.250625014   -7232394.500
 -1.143749952   -7233220.000
 -1.036875010   -7234041.000
 -0.9300000072   -7234862.500
 -0.8231250048   -7235685.000
 -0.7162500024   -7236513.000
 -0.6093750000   -7237344.500
 -0.5024999976   -7238180.000
 -0.3956249952   -7239019.500
 -0.2887499928   -7239859.000
 -0.1818750054   -7240696.000
 -0.7500000298E-01   -7241531.000
 0.3187499940E-01   -7242358.000
 0.1387500018   -7243180.500
 0.2456250042   -7243996.000
 0.3524999917   -7244811.000
 0.4593749940   -7245626.500
 0.5662500262   -7246447.500
 0.6731250286   -7247272.000
 0.7799999714   -7248102.500
 0.8868749738   -7248935.000
 0.9937499762   -7249766.500
 1.100625038   -7250595.500
 1.207499981   -7251418.000
 1.314375043   -7252234.000
 1.421249986   -7253044.000
 1.528125048   -7253852.000
 1.634999990   -7254661.000
 1.741875052   -7255472.500
 1.848749995   -7256293.500
 1.955625057   -7257120.000
