 -30.00000000   -3592420.750
 -29.95249939   -3592597.000
 -29.90500069   -3592766.750
 -29.85750008   -3592933.500
 -29.80999947   -3593101.000
 -29.76250076   -3593268.250
 -29.71500015   -3593440.750
 -29.66749954   -3593618.500
 -29.62000084   -3593802.000
 -29.57250023   -3593986.000
 -29.52499962   -3594173.000
 -29.47750092   -3594355.250
 -29.43000031   -3594534.750
 -29.38249969   -3594711.000
 -29.33499908   -3594881.500
 -29.28750038   -3595050.000
 -29.23999977   -3595220.250
 -29.19249916   -3595392.750
 -29.14500046   -3595568.500
 -29.09749985   -3595749.500
 -29.04999924   -3595936.500
 -29.00250053   -3596124.750
 -28.95499992   -3596314.250
 -28.90749931   -3596500.250
 -28.86000061   -3596684.500
 -28.81250000   -3596864.500
 -28.76499939   -3597039.500
 -28.71750069   -3597213.500
 -28.67000008   -3597386.000
 -28.62249947   -3597558.250
 -28.57500076   -3597735.750
 -28.52750015   -3597916.000
 -28.47999954   -3598101.250
 -28.43250084   -3598289.250
 -28.38500023   -3598477.250
 -28.33749962   -3598664.750
 -28.29000092   -3598848.000
 -28.24250031   -3599025.750
 -28.19499969   -3599198.750
 -28.14749908   -3599367.750
 -28.10000038   -3599534.500
 -28.05249977   -3599702.750
 -28.00499916   -3599875.000
 -27.95750046   -3600052.500
 -27.90999985   -3600236.250
 -27.86249924   -3600423.000
 -27.81500053   -3600613.750
 -27.76749992   -3600805.500
 -27.71999931   -3600993.000
 -27.67250061   -3601177.250
 -27.62500000   -3601356.500
 -27.57749939   -3601530.750
 -27.53000069   -3601700.250
 -27.48250008   -3601868.750
 -27.43499947   -3602039.750
 -27.38750076   -3602212.750
 -27.34000015   -3602388.500
 -27.29249954   -3602569.000
 -27.24500084   -3602752.000
 -27.19750023   -3602937.250
 -27.14999962   -3603122.000
 -27.10250092   -3603303.000
 -27.05500031   -3603481.500
 -27.00749969   -3603655.500
 -26.95999908   -3603827.500
 -26.91250038   -3603997.250
 -26.86499977   -3604168.750
 -26.81749916   -3604341.250
 -26.77000046   -3604516.250
 -26.72249985   -3604692.000
 -26.67499924   -3604871.750
 -26.62750053   -3605050.500
 -26.57999992   -3605227.500
 -26.53249931   -3605402.250
 -26.48500061   -3605572.250
 -26.43750000   -3605741.250
 -26.38999939   -3605906.500
 -26.34250069   -3606072.000
 -26.29500008   -3606237.750
 -26.24749947   -3606405.250
 -26.20000076   -3606575.750
 -26.15250015   -3606748.750
 -26.10499954   -3606927.000
 -26.05750084   -3607103.750
 -26.01000023   -3607281.500
 -25.96249962   -3607458.250
 -25.91500092   -3607633.250
 -25.86750031   -3607807.250
 -25.81999969   -3607977.000
 -25.77249908   -3608143.250
 -25.72500038   -3608308.500
 -25.67749977   -3608473.250
 -25.62999916   -3608636.500
 -25.58250046   -3608801.000
 -25.53499985   -3608965.250
 -25.48749924   -3609131.750
 -25.44000053   -3609300.250
 -25.39249992   -3609470.000
 -25.34499931   -3609642.000
 -25.29750061   -3609814.750
 -25.25000000   -3609990.250
 -25.20249939   -3610166.500
 -25.15500069   -3610343.500
 -25.10750008   -3610522.750
 -25.05999947   -3610702.750
 -25.01250076   -3610883.000
 -24.96500015   -3611064.250
 -24.91749954   -3611246.500
 -24.87000084   -3611428.250
 -24.82250023   -3611608.750
 -24.77499962   -3611789.500
 -24.72750092   -3611968.000
 -24.68000031   -3612147.250
 -24.63249969   -3612324.250
 -24.58499908   -3612503.750
 -24.53750038   -3612682.750
 -24.48999977   -3612862.250
 -24.44249916   -3613044.250
 -24.39500046   -3613223.000
 -24.34749985   -3613405.000
 -24.29999924   -3613584.500
 -24.25250053   -3613765.750
 -24.20499992   -3613943.750
 -24.15749931   -3614122.500
 -24.11000061   -3614302.500
 -24.06250000   -3614483.000
 -24.01499939   -3614663.000
 -23.96750069   -3614843.250
 -23.92000008   -3615025.250
 -23.87249947   -3615207.250
 -23.82500076   -3615387.250
 -23.77750015   -3615567.250
 -23.72999954   -3615744.500
 -23.68250084   -3615918.500
 -23.63500023   -3616091.500
 -23.58749962   -3616263.500
 -23.54000092   -3616435.250
 -23.49250031   -3616609.500
 -23.44499969   -3616783.500
 -23.39749908   -3616958.500
 -23.35000038   -3617135.750
 -23.30249977   -3617314.000
 -23.25499916   -3617492.000
 -23.20750046   -3617670.250
 -23.15999985   -3617847.000
 -23.11249924   -3618020.250
 -23.06500053   -3618193.750
 -23.01749992   -3618364.250
 -22.96999931   -3618533.750
 -22.92250061   -3618700.750
 -22.87500000   -3618868.500
 -22.82749939   -3619037.500
 -22.78000069   -3619208.750
 -22.73250008   -3619379.250
 -22.68499947   -3619549.500
 -22.63750076   -3619719.500
 -22.59000015   -3619889.250
 -22.54249954   -3620059.500
 -22.49500084   -3620227.250
 -22.44750023   -3620395.500
 -22.39999962   -3620562.250
 -22.35250092   -3620728.250
 -22.30500031   -3620896.500
 -22.25749969   -3621064.000
 -22.20999908   -3621233.750
 -22.16250038   -3621404.500
 -22.11499977   -3621576.500
 -22.06749916   -3621751.250
 -22.02000046   -3621927.000
 -21.97249985   -3622102.500
 -21.92499924   -3622278.750
 -21.87750053   -3622454.500
 -21.82999992   -3622630.000
 -21.78249931   -3622807.000
 -21.73500061   -3622985.000
 -21.68750000   -3623162.750
 -21.63999939   -3623342.250
 -21.59250069   -3623523.500
 -21.54500008   -3623707.750
 -21.49749947   -3623892.250
 -21.45000076   -3624079.500
 -21.40250015   -3624268.250
 -21.35499954   -3624458.000
 -21.30750084   -3624646.750
 -21.26000023   -3624836.250
 -21.21249962   -3625024.250
 -21.16500092   -3625210.750
 -21.11750031   -3625395.500
 -21.06999969   -3625581.250
 -21.02249908   -3625767.750
 -20.97500038   -3625955.750
 -20.92749977   -3626141.750
 -20.87999916   -3626331.250
 -20.83250046   -3626522.000
 -20.78499985   -3626713.000
 -20.73749924   -3626905.500
 -20.69000053   -3627097.250
 -20.64249992   -3627287.500
 -20.59499931   -3627477.000
 -20.54750061   -3627664.250
 -20.50000000   -3627852.250
 -20.45249939   -3628039.750
 -20.40500069   -3628228.500
 -20.35750008   -3628415.250
 -20.30999947   -3628603.250
 -20.26250076   -3628793.250
 -20.21500015   -3628982.000
 -20.16749954   -3629171.500
 -20.12000084   -3629358.500
 -20.07250023   -3629544.000
 -20.02499962   -3629725.500
 -19.97750092   -3629904.750
 -19.93000031   -3630082.000
 -19.88249969   NAN
 -19.83499908   NAN
 -19.78750038   NAN
 -19.73999977   NAN
 -19.69249916   NAN
 -19.64500046   NAN
 -19.59749985   NAN
 -19.54999924   NAN
 -19.50250053   NAN
 -19.45499992   NAN
 -19.40749931   NAN
 -19.36000061   NAN
 -19.31250000   NAN
 -19.26499939   NAN
 -19.21750069   NAN
 -19.17000008   NAN
 -19.12249947   NAN
 -19.07500076   NAN
 -19.02750015   NAN
 -18.97999954   NAN
 -18.93250084   NAN
 -18.88500023   NAN
 -18.83749962   NAN
 -18.79000092   NAN
 -18.74250031   NAN
 -18.69499969   NAN
 -18.64749908   NAN
 -18.60000038   NAN
 -18.55249977   NAN
 -18.50499916   NAN
 -18.45750046   NAN
 -18.40999985   NAN
 -18.36249924   NAN
 -18.31500053   NAN
 -18.26749992   NAN
 -18.21999931   NAN
 -18.17250061   NAN
 -18.12500000   NAN
 -18.07749939   NAN
 -18.03000069   NAN
 -17.98250008   NAN
 -17.93499947   NAN
 -17.88750076   NAN
 -17.84000015   NAN
 -17.79249954   NAN
 -17.74500084   NAN
 -17.69750023   NAN
 -17.64999962   NAN
 -17.60250092   NAN
 -17.55500031   NAN
 -17.50749969   NAN
 -17.45999908   NAN
 -17.41250038   NAN
 -17.36499977   NAN
 -17.31749916   NAN
 -17.27000046   NAN
 -17.22249985   NAN
 -17.17499924   NAN
 -17.12750053   NAN
 -17.07999992   NAN
 -17.03249931   NAN
 -16.98500061   NAN
 -16.93750000   NAN
 -16.88999939   NAN
 -16.84250069   NAN
 -16.79500008   NAN
 -16.74749947   NAN
 -16.70000076   NAN
 -16.65250015   NAN
 -16.60499954   NAN
 -16.55750084   NAN
 -16.51000023   NAN
 -16.46249962   NAN
 -16.41500092   NAN
 -16.36750031   NAN
 -16.31999969   NAN
 -16.27249908   NAN
 -16.22500038   NAN
 -16.17749977   NAN
 -16.12999916   NAN
 -16.08250046   NAN
 -16.03499985   NAN
 -15.98750019   NAN
 -15.93999958   NAN
 -15.89249992   NAN
 -15.84500027   NAN
 -15.79749966   NAN
