 -30.00000000   10103014.00
 -29.95249939   10103533.00
 -29.90500069   10104053.00
 -29.85750008   10104576.00
 -29.80999947   10105101.00
 -29.76250076   10105626.00
 -29.71500015   10106151.00
 -29.66749954   10106678.00
 -29.62000084   10107203.00
 -29.57250023   10107727.00
 -29.52499962   10108253.00
 -29.47750092   10108777.00
 -29.43000031   10109301.00
 -29.38249969   10109824.00
 -29.33499908   10110348.00
 -29.28750038   10110868.00
 -29.23999977   10111389.00
 -29.19249916   10111909.00
 -29.14500046   10112426.00
 -29.09749985   10112944.00
 -29.04999924   10113461.00
 -29.00250053   10113980.00
 -28.95499992   10114497.00
 -28.90749931   10115016.00
 -28.86000061   10115537.00
 -28.81250000   10116058.00
 -28.76499939   10116581.00
 -28.71750069   10117104.00
 -28.67000008   10117627.00
 -28.62249947   10118148.00
 -28.57500076   10118669.00
 -28.52750015   10119190.00
 -28.47999954   10119710.00
 -28.43250084   10120230.00
 -28.38500023   10120748.00
 -28.33749962   10121266.00
 -28.29000092   10121784.00
 -28.24250031   10122304.00
 -28.19499969   10122821.00
 -28.14749908   10123338.00
 -28.10000038   10123855.00
 -28.05249977   10124370.00
 -28.00499916   10124885.00
 -27.95750046   10125397.00
 -27.90999985   10125909.00
 -27.86249924   10126421.00
 -27.81500053   10126931.00
 -27.76749992   10127444.00
 -27.71999931   10127956.00
 -27.67250061   10128469.00
 -27.62500000   10128985.00
 -27.57749939   10129501.00
 -27.53000069   10130019.00
 -27.48250008   10130537.00
 -27.43499947   10131058.00
 -27.38750076   10131578.00
 -27.34000015   10132100.00
 -27.29249954   10132621.00
 -27.24500084   10133143.00
 -27.19750023   10133666.00
 -27.14999962   10134189.00
 -27.10250092   10134711.00
 -27.05500031   10135232.00
 -27.00749969   10135752.00
 -26.95999908   10136271.00
 -26.91250038   10136787.00
 -26.86499977   10137303.00
 -26.81749916   10137818.00
 -26.77000046   10138333.00
 -26.72249985   10138848.00
 -26.67499924   10139366.00
 -26.62750053   10139887.00
 -26.57999992   10140409.00
 -26.53249931   10140935.00
 -26.48500061   10141464.00
 -26.43750000   10141996.00
 -26.38999939   10142530.00
 -26.34250069   10143063.00
 -26.29500008   10143595.00
 -26.24749947   10144128.00
 -26.20000076   10144658.00
 -26.15250015   10145184.00
 -26.10499954   10145708.00
 -26.05750084   10146228.00
 -26.01000023   10146748.00
 -25.96249962   10147263.00
 -25.91500092   10147777.00
 -25.86750031   10148287.00
 -25.81999969   10148798.00
 -25.77249908   10149306.00
 -25.72500038   10149815.00
 -25.67749977   10150324.00
 -25.62999916   10150835.00
 -25.58250046   10151349.00
 -25.53499985   10151867.00
 -25.48749924   10152385.00
 -25.44000053   10152907.00
 -25.39249992   10153432.00
 -25.34499931   10153957.00
 -25.29750061   10154484.00
 -25.25000000   10155008.00
 -25.20249939   10155532.00
 -25.15500069   10156053.00
 -25.10750008   10156570.00
 -25.05999947   10157085.00
 -25.01250076   10157597.00
 -24.96500015   10158107.00
 -24.91749954   10158616.00
 -24.87000084   10159123.00
 -24.82250023   10159631.00
 -24.77499962   10160137.00
 -24.72750092   10160646.00
 -24.68000031   10161155.00
 -24.63249969   10161666.00
 -24.58499908   10162179.00
 -24.53750038   10162693.00
 -24.48999977   10163209.00
 -24.44249916   10163728.00
 -24.39500046   10164248.00
 -24.34749985   10164767.00
 -24.29999924   10165288.00
 -24.25250053   10165807.00
 -24.20499992   10166327.00
 -24.15749931   10166843.00
 -24.11000061   10167358.00
 -24.06250000   10167871.00
 -24.01499939   10168381.00
 -23.96750069   10168889.00
 -23.92000008   10169396.00
 -23.87249947   10169904.00
 -23.82500076   10170412.00
 -23.77750015   10170919.00
 -23.72999954   10171429.00
 -23.68250084   10171941.00
 -23.63500023   10172455.00
 -23.58749962   10172970.00
 -23.54000092   10173488.00
 -23.49250031   10174006.00
 -23.44499969   10174527.00
 -23.39749908   10175046.00
 -23.35000038   10175565.00
 -23.30249977   10176085.00
 -23.25499916   10176604.00
 -23.20750046   10177125.00
 -23.15999985   10177642.00
 -23.11249924   10178161.00
 -23.06500053   10178679.00
 -23.01749992   10179200.00
 -22.96999931   10179721.00
 -22.92250061   10180243.00
 -22.87500000   10180766.00
 -22.82749939   10181293.00
 -22.78000069   10181820.00
 -22.73250008   10182346.00
 -22.68499947   10182874.00
 -22.63750076   10183400.00
 -22.59000015   10183927.00
 -22.54249954   10184451.00
 -22.49500084   10184974.00
 -22.44750023   10185493.00
 -22.39999962   10186011.00
 -22.35250092   10186526.00
 -22.30500031   10187041.00
 -22.25749969   10187556.00
 -22.20999908   10188067.00
 -22.16250038   10188584.00
 -22.11499977   10189099.00
 -22.06749916   10189620.00
 -22.02000046   10190139.00
 -21.97249985   10190661.00
 -21.92499924   10191184.00
 -21.87750053   10191708.00
 -21.82999992   10192232.00
 -21.78249931   10192756.00
 -21.73500061   10193278.00
 -21.68750000   10193801.00
 -21.63999939   10194321.00
 -21.59250069   10194839.00
 -21.54500008   10195354.00
 -21.49749947   10195865.00
 -21.45000076   10196374.00
 -21.40250015   10196880.00
 -21.35499954   10197385.00
 -21.30750084   10197887.00
 -21.26000023   10198389.00
 -21.21249962   10198893.00
 -21.16500092   10199397.00
 -21.11750031   10199902.00
 -21.06999969   10200410.00
 -21.02249908   10200923.00
 -20.97500038   10201437.00
 -20.92749977   10201955.00
 -20.87999916   10202474.00
 -20.83250046   10202992.00
 -20.78499985   10203512.00
 -20.73749924   10204031.00
 -20.69000053   10204547.00
 -20.64249992   10205060.00
 -20.59499931   10205572.00
 -20.54750061   10206078.00
 -20.50000000   10206584.00
 -20.45249939   10207086.00
 -20.40500069   10207587.00
 -20.35750008   10208087.00
 -20.30999947   10208585.00
 -20.26250076   10209089.00
 -20.21500015   10209592.00
 -20.16749954   10210100.00
 -20.12000084   10210610.00
 -20.07250023   10211124.00
 -20.02499962   10211643.00
 -19.97750092   10212164.00
 -19.93000031   10212689.00
 -19.88249969   NAN
 -19.83499908   NAN
 -19.78750038   NAN
 -19.73999977   NAN
 -19.69249916   NAN
 -19.64500046   NAN
 -19.59749985   NAN
 -19.54999924   NAN
 -19.50250053   NAN
 -19.45499992   NAN
 -19.40749931   NAN
 -19.36000061   NAN
 -19.31250000   NAN
 -19.26499939   NAN
 -19.21750069   NAN
 -19.17000008   NAN
 -19.12249947   NAN
 -19.07500076   NAN
 -19.02750015   NAN
 -18.97999954   NAN
 -18.93250084   NAN
 -18.88500023   NAN
 -18.83749962   NAN
 -18.79000092   NAN
 -18.74250031   NAN
 -18.69499969   NAN
 -18.64749908   NAN
 -18.60000038   NAN
 -18.55249977   NAN
 -18.50499916   NAN
 -18.45750046   NAN
 -18.40999985   NAN
 -18.36249924   NAN
 -18.31500053   NAN
 -18.26749992   NAN
 -18.21999931   NAN
 -18.17250061   NAN
 -18.12500000   NAN
 -18.07749939   NAN
 -18.03000069   NAN
 -17.98250008   NAN
 -17.93499947   NAN
 -17.88750076   NAN
 -17.84000015   NAN
 -17.79249954   NAN
 -17.74500084   NAN
 -17.69750023   NAN
 -17.64999962   NAN
 -17.60250092   NAN
 -17.55500031   NAN
 -17.50749969   NAN
 -17.45999908   NAN
 -17.41250038   NAN
 -17.36499977   NAN
 -17.31749916   NAN
 -17.27000046   NAN
 -17.22249985   NAN
 -17.17499924   NAN
 -17.12750053   NAN
 -17.07999992   NAN
 -17.03249931   NAN
 -16.98500061   NAN
 -16.93750000   NAN
 -16.88999939   NAN
 -16.84250069   NAN
 -16.79500008   NAN
 -16.74749947   NAN
 -16.70000076   NAN
 -16.65250015   NAN
 -16.60499954   NAN
 -16.55750084   NAN
 -16.51000023   NAN
 -16.46249962   NAN
 -16.41500092   NAN
 -16.36750031   NAN
 -16.31999969   NAN
 -16.27249908   NAN
 -16.22500038   NAN
 -16.17749977   NAN
 -16.12999916   NAN
 -16.08250046   NAN
 -16.03499985   NAN
 -15.98750019   NAN
 -15.93999958   NAN
 -15.89249992   NAN
 -15.84500027   NAN
 -15.79749966   NAN
