 -30.00000000   2608632.000
 -29.95249939   2608765.500
 -29.90500069   2608898.250
 -29.85750008   2609032.250
 -29.80999947   2609164.250
 -29.76250076   2609296.000
 -29.71500015   2609428.500
 -29.66749954   2609561.500
 -29.62000084   2609694.500
 -29.57250023   2609826.000
 -29.52499962   2609958.250
 -29.47750092   2610089.250
 -29.43000031   2610220.500
 -29.38249969   2610351.500
 -29.33499908   2610481.000
 -29.28750038   2610613.250
 -29.23999977   2610747.000
 -29.19249916   2610879.500
 -29.14500046   2611012.750
 -29.09749985   2611146.750
 -29.04999924   2611282.250
 -29.00250053   2611414.750
 -28.95499992   2611549.750
 -28.90749931   2611683.000
 -28.86000061   2611817.750
 -28.81250000   2611950.500
 -28.76499939   2612084.000
 -28.71750069   2612219.750
 -28.67000008   2612356.500
 -28.62249947   2612494.500
 -28.57500076   2612633.750
 -28.52750015   2612774.000
 -28.47999954   2612916.250
 -28.43250084   2613057.750
 -28.38500023   2613200.500
 -28.33749962   2613340.500
 -28.29000092   2613480.750
 -28.24250031   2613617.750
 -28.19499969   2613753.000
 -28.14749908   2613886.750
 -28.10000038   2614017.500
 -28.05249977   2614147.000
 -28.00499916   2614274.750
 -27.95750046   2614404.250
 -27.90999985   2614534.000
 -27.86249924   2614666.750
 -27.81500053   2614801.500
 -27.76749992   2614938.750
 -27.71999931   2615079.250
 -27.67250061   2615222.000
 -27.62500000   2615366.500
 -27.57749939   2615512.750
 -27.53000069   2615661.000
 -27.48250008   2615810.000
 -27.43499947   2615958.250
 -27.38750076   2616105.750
 -27.34000015   2616252.000
 -27.29249954   2616398.500
 -27.24500084   2616540.000
 -27.19750023   2616682.750
 -27.14999962   2616821.250
 -27.10250092   2616958.500
 -27.05500031   2617093.750
 -27.00749969   2617228.250
 -26.95999908   2617364.500
 -26.91250038   2617501.250
 -26.86499977   2617638.750
 -26.81749916   2617777.500
 -26.77000046   2617918.750
 -26.72249985   2618062.000
 -26.67499924   2618204.500
 -26.62750053   2618348.500
 -26.57999992   2618493.250
 -26.53249931   2618637.000
 -26.48500061   2618780.000
 -26.43750000   2618921.500
 -26.38999939   2619062.250
 -26.34250069   2619201.250
 -26.29500008   2619339.000
 -26.24749947   2619474.750
 -26.20000076   2619608.250
 -26.15250015   2619742.500
 -26.10499954   2619873.750
 -26.05750084   2620004.000
 -26.01000023   2620134.750
 -25.96249962   2620263.250
 -25.91500092   2620393.500
 -25.86750031   2620522.750
 -25.81999969   2620653.500
 -25.77249908   2620783.750
 -25.72500038   2620916.250
 -25.67749977   2621049.250
 -25.62999916   2621183.250
 -25.58250046   2621318.500
 -25.53499985   2621454.750
 -25.48749924   2621592.500
 -25.44000053   2621730.750
 -25.39249992   2621867.500
 -25.34499931   2622005.250
 -25.29750061   2622143.000
 -25.25000000   2622280.750
 -25.20249939   2622416.500
 -25.15500069   2622551.750
 -25.10750008   2622687.000
 -25.05999947   2622819.750
 -25.01250076   2622952.250
 -24.96500015   2623083.500
 -24.91749954   2623216.250
 -24.87000084   2623347.250
 -24.82250023   2623478.750
 -24.77499962   2623612.250
 -24.72750092   2623745.500
 -24.68000031   2623878.750
 -24.63249969   2624012.500
 -24.58499908   2624149.000
 -24.53750038   2624287.000
 -24.48999977   2624424.750
 -24.44249916   2624564.250
 -24.39500046   2624705.500
 -24.34749985   2624848.500
 -24.29999924   2624992.250
 -24.25250053   2625136.500
 -24.20499992   2625281.500
 -24.15749931   2625426.500
 -24.11000061   2625570.250
 -24.06250000   2625712.750
 -24.01499939   2625853.500
 -23.96750069   2625992.500
 -23.92000008   2626132.000
 -23.87249947   2626269.250
 -23.82500076   2626406.000
 -23.77750015   2626544.000
 -23.72999954   2626681.250
 -23.68250084   2626819.500
 -23.63500023   2626955.750
 -23.58749962   2627094.250
 -23.54000092   2627230.500
 -23.49250031   2627368.750
 -23.44499969   2627504.750
 -23.39749908   2627642.000
 -23.35000038   2627778.750
 -23.30249977   2627915.500
 -23.25499916   2628053.250
 -23.20750046   2628192.500
 -23.15999985   2628332.250
 -23.11249924   2628473.000
 -23.06500053   2628614.250
 -23.01749992   2628755.250
 -22.96999931   2628896.250
 -22.92250061   2629037.250
 -22.87500000   2629177.000
 -22.82749939   2629312.500
 -22.78000069   2629447.750
 -22.73250008   2629581.250
 -22.68499947   2629713.000
 -22.63750076   2629842.500
 -22.59000015   2629972.500
 -22.54249954   2630100.500
 -22.49500084   2630228.500
 -22.44750023   2630355.750
 -22.39999962   2630485.000
 -22.35250092   2630615.500
 -22.30500031   2630745.500
 -22.25749969   2630878.750
 -22.20999908   2631012.750
 -22.16250038   2631148.750
 -22.11499977   2631285.750
 -22.06749916   2631424.250
 -22.02000046   2631562.750
 -21.97249985   2631700.750
 -21.92499924   2631838.000
 -21.87750053   2631975.500
 -21.82999992   2632111.250
 -21.78249931   2632243.750
 -21.73500061   2632372.500
 -21.68750000   2632502.750
 -21.63999939   2632630.000
 -21.59250069   2632758.000
 -21.54500008   2632886.000
 -21.49749947   2633015.250
 -21.45000076   2633145.250
 -21.40250015   2633275.750
 -21.35499954   2633410.500
 -21.30750084   2633544.000
 -21.26000023   2633680.000
 -21.21249962   2633817.000
 -21.16500092   2633952.500
 -21.11750031   2634089.000
 -21.06999969   2634226.500
 -21.02249908   2634362.750
 -20.97500038   2634498.500
 -20.92749977   2634635.000
 -20.87999916   2634771.250
 -20.83250046   2634909.000
 -20.78499985   2635044.750
 -20.73749924   2635181.750
 -20.69000053   2635317.500
 -20.64249992   2635455.000
 -20.59499931   2635590.750
 -20.54750061   2635728.250
 -20.50000000   2635865.000
 -20.45249939   2636004.500
 -20.40500069   2636142.000
 -20.35750008   2636281.500
 -20.30999947   2636419.000
 -20.26250076   2636556.500
 -20.21500015   2636693.000
 -20.16749954   2636829.500
 -20.12000084   2636964.000
 -20.07250023   2637099.000
 -20.02499962   2637231.250
 -19.97750092   2637364.250
 -19.93000031   2637495.750
 -19.88249969   NAN
 -19.83499908   NAN
 -19.78750038   NAN
 -19.73999977   NAN
 -19.69249916   NAN
 -19.64500046   NAN
 -19.59749985   NAN
 -19.54999924   NAN
 -19.50250053   NAN
 -19.45499992   NAN
 -19.40749931   NAN
 -19.36000061   NAN
 -19.31250000   NAN
 -19.26499939   NAN
 -19.21750069   NAN
 -19.17000008   NAN
 -19.12249947   NAN
 -19.07500076   NAN
 -19.02750015   NAN
 -18.97999954   NAN
 -18.93250084   NAN
 -18.88500023   NAN
 -18.83749962   NAN
 -18.79000092   NAN
 -18.74250031   NAN
 -18.69499969   NAN
 -18.64749908   NAN
 -18.60000038   NAN
 -18.55249977   NAN
 -18.50499916   NAN
 -18.45750046   NAN
 -18.40999985   NAN
 -18.36249924   NAN
 -18.31500053   NAN
 -18.26749992   NAN
 -18.21999931   NAN
 -18.17250061   NAN
 -18.12500000   NAN
 -18.07749939   NAN
 -18.03000069   NAN
 -17.98250008   NAN
 -17.93499947   NAN
 -17.88750076   NAN
 -17.84000015   NAN
 -17.79249954   NAN
 -17.74500084   NAN
 -17.69750023   NAN
 -17.64999962   NAN
 -17.60250092   NAN
 -17.55500031   NAN
 -17.50749969   NAN
 -17.45999908   NAN
 -17.41250038   NAN
 -17.36499977   NAN
 -17.31749916   NAN
 -17.27000046   NAN
 -17.22249985   NAN
 -17.17499924   NAN
 -17.12750053   NAN
 -17.07999992   NAN
 -17.03249931   NAN
 -16.98500061   NAN
 -16.93750000   NAN
 -16.88999939   NAN
 -16.84250069   NAN
 -16.79500008   NAN
 -16.74749947   NAN
 -16.70000076   NAN
 -16.65250015   NAN
 -16.60499954   NAN
 -16.55750084   NAN
 -16.51000023   NAN
 -16.46249962   NAN
 -16.41500092   NAN
 -16.36750031   NAN
 -16.31999969   NAN
 -16.27249908   NAN
 -16.22500038   NAN
 -16.17749977   NAN
 -16.12999916   NAN
 -16.08250046   NAN
 -16.03499985   NAN
 -15.98750019   NAN
 -15.93999958   NAN
 -15.89249992   NAN
 -15.84500027   NAN
 -15.79749966   NAN
