 -30.00000000   -591931.0000
 -29.95249939   -591919.9375
 -29.90500069   -591872.1250
 -29.85750008   -591793.0625
 -29.80999947   -591688.1875
 -29.76250076   -591572.4375
 -29.71500015   -591450.1875
 -29.66749954   -591332.8750
 -29.62000084   -591228.9375
 -29.57250023   -591142.7500
 -29.52499962   -591079.6250
 -29.47750092   -591039.5625
 -29.43000031   -591022.6875
 -29.38249969   -591026.3125
 -29.33499908   -591046.5000
 -29.28750038   -591079.6250
 -29.23999977   -591120.5000
 -29.19249916   -591164.3750
 -29.14500046   -591204.1250
 -29.09749985   -591238.1875
 -29.04999924   -591259.8125
 -29.00250053   -591265.8750
 -28.95499992   -591253.8750
 -28.90749931   -591224.1250
 -28.86000061   -591174.0625
 -28.81250000   -591110.0625
 -28.76499939   -591035.1875
 -28.71750069   -590954.6250
 -28.67000008   -590874.7500
 -28.62249947   -590802.7500
 -28.57500076   -590744.4375
 -28.52750015   -590705.3750
 -28.47999954   -590688.5000
 -28.43250084   -590695.4375
 -28.38500023   -590725.0000
 -28.33749962   -590772.8125
 -28.29000092   -590835.1250
 -28.24250031   -590902.7500
 -28.19499969   -590970.8125
 -28.14749908   -591031.5000
 -28.10000038   -591079.0000
 -28.05249977   -591111.3750
 -28.00499916   -591123.5625
 -27.95750046   -591119.1875
 -27.90999985   -591099.5625
 -27.86249924   -591066.8125
 -27.81500053   -591024.8125
 -27.76749992   -590978.7500
 -27.71999931   -590931.9375
 -27.67250061   -590888.7500
 -27.62500000   -590848.1250
 -27.57749939   -590815.1250
 -27.53000069   -590785.8125
 -27.48250008   -590762.3750
 -27.43499947   -590744.9375
 -27.38750076   -590734.4375
 -27.34000015   -590728.6250
 -27.29249954   -590728.8750
 -27.24500084   -590736.2500
 -27.19750023   -590747.6875
 -27.14999962   -590764.2500
 -27.10250092   -590783.4375
 -27.05500031   -590806.4375
 -27.00749969   -590828.8125
 -26.95999908   -590850.2500
 -26.91250038   -590870.5000
 -26.86499977   -590888.3750
 -26.81749916   -590904.3125
 -26.77000046   -590918.1875
 -26.72249985   -590931.5625
 -26.67499924   -590947.1875
 -26.62750053   -590966.5625
 -26.57999992   -590988.3750
 -26.53249931   -591013.9375
 -26.48500061   -591040.3750
 -26.43750000   -591065.0000
 -26.38999939   -591088.6875
 -26.34250069   -591102.5000
 -26.29500008   -591109.2500
 -26.24749947   -591105.0000
 -26.20000076   -591090.8750
 -26.15250015   -591069.3750
 -26.10499954   -591044.3750
 -26.05750084   -591017.6875
 -26.01000023   -590996.8750
 -25.96249962   -590985.5000
 -25.91500092   -590985.6875
 -25.86750031   -590996.3125
 -25.81999969   -591016.3750
 -25.77249908   -591046.8750
 -25.72500038   -591077.4375
 -25.67749977   -591109.1250
 -25.62999916   -591135.9375
 -25.58250046   -591153.8750
 -25.53499985   -591159.4375
 -25.48749924   -591152.0000
 -25.44000053   -591132.8750
 -25.39249992   -591101.3125
 -25.34499931   -591059.0000
 -25.29750061   -591011.3750
 -25.25000000   -590960.2500
 -25.20249939   -590904.3750
 -25.15500069   -590848.3125
 -25.10750008   -590795.4375
 -25.05999947   -590747.6250
 -25.01250076   -590704.0000
 -24.96500015   -590669.1875
 -24.91749954   -590644.5625
 -24.87000084   -590631.4375
 -24.82250023   -590631.2500
 -24.77499962   -590644.8750
 -24.72750092   -590670.5000
 -24.68000031   -590705.3750
 -24.63249969   -590748.1875
 -24.58499908   -590792.6875
 -24.53750038   -590834.0000
 -24.48999977   -590867.6250
 -24.44249916   -590887.6250
 -24.39500046   -590895.2500
 -24.34749985   -590884.3750
 -24.29999924   -590857.8125
 -24.25250053   -590816.9375
 -24.20499992   -590765.5625
 -24.15749931   -590706.8125
 -24.11000061   -590649.0625
 -24.06250000   -590593.3750
 -24.01499939   -590546.3750
 -23.96750069   -590512.8125
 -23.92000008   -590494.1250
 -23.87249947   -590488.4375
 -23.82500076   -590499.2500
 -23.77750015   -590525.1875
 -23.72999954   -590560.8125
 -23.68250084   -590607.1875
 -23.63500023   -590658.4375
 -23.58749962   -590711.9375
 -23.54000092   -590761.5000
 -23.49250031   -590803.4375
 -23.44499969   -590836.0625
 -23.39749908   -590857.6250
 -23.35000038   -590864.3125
 -23.30249977   -590855.1875
 -23.25499916   -590831.8750
 -23.20750046   -590797.6250
 -23.15999985   -590751.7500
 -23.11249924   -590698.1250
 -23.06500053   -590641.5000
 -23.01749992   -590586.1875
 -22.96999931   -590535.6250
 -22.92250061   -590494.8750
 -22.87500000   -590470.5000
 -22.82749939   -590462.5000
 -22.78000069   -590473.0000
 -22.73250008   -590504.9375
 -22.68499947   -590554.3125
 -22.63750076   -590619.0000
 -22.59000015   -590690.9375
 -22.54249954   -590767.4375
 -22.49500084   -590840.0625
 -22.44750023   -590903.5625
 -22.39999962   -590951.8750
 -22.35250092   -590980.4375
 -22.30500031   -590990.6875
 -22.25749969   -590984.2500
 -22.20999908   -590964.7500
 -22.16250038   -590934.6875
 -22.11499977   -590898.2500
 -22.06749916   -590861.7500
 -22.02000046   -590828.1250
 -21.97249985   -590801.1250
 -21.92499924   -590782.5000
 -21.87750053   -590771.6875
 -21.82999992   -590767.5000
 -21.78249931   -590772.5000
 -21.73500061   -590782.4375
 -21.68750000   -590798.0000
 -21.63999939   -590816.1875
 -21.59250069   -590841.6250
 -21.54500008   -590868.6250
 -21.49749947   -590896.8125
 -21.45000076   -590925.1250
 -21.40250015   -590951.3750
 -21.35499954   -590972.4375
 -21.30750084   -590986.0625
 -21.26000023   -590990.4375
 -21.21249962   -590983.0000
 -21.16500092   -590964.0625
 -21.11750031   -590934.1875
 -21.06999969   -590900.0625
 -21.02249908   -590861.8750
 -20.97500038   -590824.6250
 -20.92749977   -590791.1875
 -20.87999916   -590768.1875
 -20.83250046   -590753.1250
 -20.78499985   -590746.8750
 -20.73749924   -590746.8750
 -20.69000053   -590752.6250
 -20.64249992   -590760.3750
 -20.59499931   -590765.8125
 -20.54750061   -590766.7500
 -20.50000000   -590763.3750
 -20.45249939   -590755.8125
 -20.40500069   -590743.9375
 -20.35750008   -590732.6250
 -20.30999947   -590724.8125
 -20.26250076   -590719.4375
 -20.21500015   -590719.2500
 -20.16749954   -590723.6875
 -20.12000084   -590734.6250
 -20.07250023   -590746.8750
 -20.02499962   -590758.7500
 -19.97750092   -590769.3750
 -19.93000031   -590776.6875
 -19.88249969   -590782.8125
 -19.83499908   -590786.6250
 -19.78750038   -590787.0625
 -19.73999977   -590790.1250
 -19.69249916   -590793.5000
 -19.64500046   -590800.2500
 -19.59749985   -590810.2500
 -19.54999924   -590822.6875
 -19.50250053   -590837.5000
 -19.45499992   -590851.3125
 -19.40749931   -590863.2500
 -19.36000061   -590872.1875
 -19.31250000   -590877.8750
 -19.26499939   -590882.7500
 -19.21750069   -590883.1250
 -19.17000008   -590887.6250
 -19.12249947   -590893.5625
 -19.07500076   -590903.8750
 -19.02750015   -590921.5000
 -18.97999954   -590946.8750
 -18.93250084   -590980.5625
 -18.88500023   -591018.6250
 -18.83749962   -591062.2500
 -18.79000092   -591105.2500
 -18.74250031   -591146.7500
 -18.69499969   -591180.6875
 -18.64749908   -591206.4375
 -18.60000038   -591220.5625
 -18.55249977   -591223.8750
 -18.50499916   -591218.0625
 -18.45750046   -591204.8750
 -18.40999985   -591189.3750
 -18.36249924   -591175.8750
 -18.31500053   -591167.6250
 -18.26749992   -591167.9375
 -18.21999931   -591175.7500
 -18.17250061   -591195.8750
 -18.12500000   -591225.5625
 -18.07749939   -591263.0000
 -18.03000069   -591307.5000
 -17.98250008   -591354.3125
 -17.93499947   -591403.3125
 -17.88750076   -591455.0000
 -17.84000015   -591505.9375
 -17.79249954   -591559.2500
 -17.74500084   -591610.3750
 -17.69750023   -591660.4375
 -17.64999962   -591703.8750
 -17.60250092   -591743.1250
 -17.55500031   -591773.3750
 -17.50749969   -591792.1250
 -17.45999908   -591798.8125
 -17.41250038   -591792.5000
 -17.36499977   -591777.8750
 -17.31749916   -591756.6250
 -17.27000046   -591731.8125
 -17.22249985   -591711.8125
 -17.17499924   -591699.8125
 -17.12750053   -591700.7500
 -17.07999992   -591717.1250
 -17.03249931   -591749.9375
 -16.98500061   -591799.5000
 -16.93750000   -591860.9375
 -16.88999939   -591932.0000
 -16.84250069   -592002.0625
 -16.79500008   -592068.1875
 -16.74749947   -592126.2500
 -16.70000076   -592169.6250
 -16.65250015   -592196.2500
 -16.60499954   -592210.1875
 -16.55750084   -592208.1250
 -16.51000023   -592196.3750
 -16.46249962   -592177.4375
 -16.41500092   -592154.5000
 -16.36750031   -592132.1875
 -16.31999969   -592114.2500
 -16.27249908   -592099.5000
 -16.22500038   -592089.2500
 -16.17749977   -592085.1875
 -16.12999916   -592088.0625
 -16.08250046   -592095.2500
 -16.03499985   -592110.7500
 -15.98750019   -592133.3125
 -15.93999958   -592163.6250
 -15.89249992   -592199.7500
 -15.84500027   -592242.8750
 -15.79749966   -592289.6875
