 -30.00000000   -4436119.500
 -29.95249939   -4436357.500
 -29.90500069   -4436607.000
 -29.85750008   -4436866.500
 -29.80999947   -4437134.000
 -29.76250076   -4437405.500
 -29.71500015   -4437680.500
 -29.66749954   -4437952.000
 -29.62000084   -4438221.500
 -29.57250023   -4438484.000
 -29.52499962   -4438739.000
 -29.47750092   -4438987.000
 -29.43000031   -4439227.000
 -29.38249969   -4439459.500
 -29.33499908   -4439686.000
 -29.28750038   -4439909.000
 -29.23999977   -4440127.500
 -29.19249916   -4440347.500
 -29.14500046   -4440567.500
 -29.09749985   -4440790.500
 -29.04999924   -4441019.000
 -29.00250053   -4441251.000
 -28.95499992   -4441490.000
 -28.90749931   -4441732.500
 -28.86000061   -4441980.000
 -28.81250000   -4442232.000
 -28.76499939   -4442486.000
 -28.71750069   -4442739.000
 -28.67000008   -4442991.000
 -28.62249947   -4443241.000
 -28.57500076   -4443486.000
 -28.52750015   -4443727.000
 -28.47999954   -4443963.000
 -28.43250084   -4444193.500
 -28.38500023   -4444420.000
 -28.33749962   -4444641.500
 -28.29000092   -4444861.000
 -28.24250031   -4445077.500
 -28.19499969   -4445293.000
 -28.14749908   -4445510.000
 -28.10000038   -4445728.500
 -28.05249977   -4445950.500
 -28.00499916   -4446176.000
 -27.95750046   -4446406.000
 -27.90999985   -4446639.500
 -27.86249924   -4446878.500
 -27.81500053   -4447121.500
 -27.76749992   -4447366.500
 -27.71999931   -4447614.000
 -27.67250061   -4447862.000
 -27.62500000   -4448109.500
 -27.57749939   -4448357.000
 -27.53000069   -4448601.500
 -27.48250008   -4448846.500
 -27.43499947   -4449088.000
 -27.38750076   -4449326.000
 -27.34000015   -4449563.000
 -27.29249954   -4449796.500
 -27.24500084   -4450027.500
 -27.19750023   -4450256.000
 -27.14999962   -4450481.500
 -27.10250092   -4450706.000
 -27.05500031   -4450929.500
 -27.00749969   -4451153.500
 -26.95999908   -4451377.000
 -26.91250038   -4451602.500
 -26.86499977   -4451827.500
 -26.81749916   -4452052.000
 -26.77000046   -4452277.000
 -26.72249985   -4452500.000
 -26.67499924   -4452720.500
 -26.62750053   -4452937.500
 -26.57999992   -4453149.500
 -26.53249931   -4453359.000
 -26.48500061   -4453566.500
 -26.43750000   -4453774.000
 -26.38999939   -4453981.000
 -26.34250069   -4454191.000
 -26.29500008   -4454406.500
 -26.24749947   -4454627.500
 -26.20000076   -4454855.000
 -26.15250015   -4455090.000
 -26.10499954   -4455330.500
 -26.05750084   -4455575.000
 -26.01000023   -4455820.500
 -25.96249962   -4456064.500
 -25.91500092   -4456306.000
 -25.86750031   -4456545.000
 -25.81999969   -4456779.000
 -25.77249908   -4457007.500
 -25.72500038   -4457231.000
 -25.67749977   -4457455.000
 -25.62999916   -4457675.000
 -25.58250046   -4457894.000
 -25.53499985   -4458113.000
 -25.48749924   -4458333.000
 -25.44000053   -4458554.000
 -25.39249992   -4458781.000
 -25.34499931   -4459010.000
 -25.29750061   -4459243.500
 -25.25000000   -4459485.500
 -25.20249939   -4459731.500
 -25.15500069   -4459980.500
 -25.10750008   -4460234.500
 -25.05999947   -4460489.500
 -25.01250076   -4460743.000
 -24.96500015   -4460994.000
 -24.91749954   -4461238.500
 -24.87000084   -4461478.500
 -24.82250023   -4461712.000
 -24.77499962   -4461938.500
 -24.72750092   -4462158.500
 -24.68000031   -4462372.500
 -24.63249969   -4462582.500
 -24.58499908   -4462792.000
 -24.53750038   -4463000.500
 -24.48999977   -4463212.000
 -24.44249916   -4463428.500
 -24.39500046   -4463651.500
 -24.34749985   -4463882.000
 -24.29999924   -4464121.500
 -24.25250053   -4464367.000
 -24.20499992   -4464620.000
 -24.15749931   -4464873.000
 -24.11000061   -4465129.000
 -24.06250000   -4465382.500
 -24.01499939   -4465630.500
 -23.96750069   -4465873.500
 -23.92000008   -4466108.000
 -23.87249947   -4466336.500
 -23.82500076   -4466554.500
 -23.77750015   -4466767.500
 -23.72999954   -4466975.000
 -23.68250084   -4467177.000
 -23.63500023   -4467375.500
 -23.58749962   -4467575.000
 -23.54000092   -4467776.500
 -23.49250031   -4467984.500
 -23.44499969   -4468200.000
 -23.39749908   -4468425.500
 -23.35000038   -4468659.500
 -23.30249977   -4468901.500
 -23.25499916   -4469150.000
 -23.20750046   -4469403.500
 -23.15999985   -4469658.000
 -23.11249924   -4469911.000
 -23.06500053   -4470160.500
 -23.01749992   -4470403.500
 -22.96999931   -4470639.500
 -22.92250061   -4470868.000
 -22.87500000   -4471087.500
 -22.82749939   -4471300.000
 -22.78000069   -4471504.000
 -22.73250008   -4471701.500
 -22.68499947   -4471893.000
 -22.63750076   -4472082.000
 -22.59000015   -4472273.000
 -22.54249954   -4472465.500
 -22.49500084   -4472666.500
 -22.44750023   -4472875.000
 -22.39999962   -4473093.000
 -22.35250092   -4473319.500
 -22.30500031   -4473555.000
 -22.25749969   -4473797.500
 -22.20999908   -4474043.000
 -22.16250038   -4474292.000
 -22.11499977   -4474540.000
 -22.06749916   -4474785.500
 -22.02000046   -4475026.500
 -21.97249985   -4475262.500
 -21.92499924   -4475491.000
 -21.87750053   -4475714.500
 -21.82999992   -4475932.000
 -21.78249931   -4476142.500
 -21.73500061   -4476349.500
 -21.68750000   -4476554.000
 -21.63999939   -4476758.000
 -21.59250069   -4476963.000
 -21.54500008   -4477173.000
 -21.49749947   -4477388.500
 -21.45000076   -4477610.500
 -21.40250015   -4477842.000
 -21.35499954   -4478081.500
 -21.30750084   -4478324.500
 -21.26000023   -4478574.000
 -21.21249962   -4478823.000
 -21.16500092   -4479071.500
 -21.11750031   -4479318.000
 -21.06999969   -4479559.500
 -21.02249908   -4479796.000
 -20.97500038   -4480025.000
 -20.92749977   -4480250.500
 -20.87999916   -4480471.000
 -20.83250046   -4480688.000
 -20.78499985   -4480905.000
 -20.73749924   -4481122.000
 -20.69000053   -4481342.500
 -20.64249992   -4481567.000
 -20.59499931   -4481798.000
 -20.54750061   -4482033.500
 -20.50000000   -4482272.000
 -20.45249939   -4482513.500
 -20.40500069   -4482758.500
 -20.35750008   -4483002.500
 -20.30999947   -4483243.000
 -20.26250076   -4483482.000
 -20.21500015   -4483719.000
 -20.16749954   -4483950.000
 -20.12000084   -4484179.500
 -20.07250023   -4484406.000
 -20.02499962   -4484632.000
 -19.97750092   -4484856.500
 -19.93000031   -4485079.000
 -19.88249969   -4485302.500
 -19.83499908   -4485525.000
 -19.78750038   -4485747.000
 -19.73999977   -4485967.500
 -19.69249916   -4486187.000
 -19.64500046   -4486405.000
 -19.59749985   -4486624.000
 -19.54999924   -4486842.500
 -19.50250053   -4487066.500
 -19.45499992   -4487291.000
 -19.40749931   -4487516.000
 -19.36000061   -4487744.500
 -19.31250000   -4487973.500
 -19.26499939   -4488202.000
 -19.21750069   -4488427.500
 -19.17000008   -4488653.000
 -19.12249947   -4488876.000
 -19.07500076   -4489095.000
 -19.02750015   -4489312.000
 -18.97999954   -4489526.500
 -18.93250084   -4489739.500
 -18.88500023   -4489953.000
 -18.83749962   -4490166.000
 -18.79000092   -4490378.000
 -18.74250031   -4490591.500
 -18.69499969   -4490808.000
 -18.64749908   -4491025.000
 -18.60000038   -4491244.500
 -18.55249977   -4491466.500
 -18.50499916   -4491690.000
 -18.45750046   -4491912.500
 -18.40999985   -4492137.500
 -18.36249924   -4492362.500
 -18.31500053   -4492588.000
 -18.26749992   -4492812.000
 -18.21999931   -4493034.500
 -18.17250061   -4493257.500
 -18.12500000   -4493480.500
 -18.07749939   -4493703.000
 -18.03000069   -4493925.000
 -17.98250008   -4494146.500
 -17.93499947   -4494365.500
 -17.88750076   -4494584.500
 -17.84000015   -4494799.500
 -17.79249954   -4495012.500
 -17.74500084   -4495221.000
 -17.69750023   -4495428.000
 -17.64999962   -4495636.500
 -17.60250092   -4495845.000
 -17.55500031   -4496058.500
 -17.50749969   -4496280.500
 -17.45999908   -4496508.000
 -17.41250038   -4496741.500
 -17.36499977   -4496981.000
 -17.31749916   -4497223.500
 -17.27000046   -4497468.500
 -17.22249985   -4497711.500
 -17.17499924   -4497951.000
 -17.12750053   -4498185.500
 -17.07999992   -4498410.500
 -17.03249931   -4498630.000
 -16.98500061   -4498843.000
 -16.93750000   -4499049.500
 -16.88999939   -4499253.500
 -16.84250069   -4499456.000
 -16.79500008   -4499655.500
 -16.74749947   -4499860.000
 -16.70000076   -4500071.500
 -16.65250015   -4500287.000
 -16.60499954   -4500510.500
 -16.55750084   -4500740.000
 -16.51000023   -4500978.500
 -16.46249962   -4501219.500
 -16.41500092   -4501466.500
 -16.36750031   -4501713.500
 -16.31999969   -4501961.500
 -16.27249908   -4502205.000
 -16.22500038   -4502447.500
 -16.17749977   -4502686.500
 -16.12999916   -4502919.500
 -16.08250046   -4503148.000
 -16.03499985   -4503373.000
 -15.98750019   -4503594.500
 -15.93999958   -4503812.000
 -15.89249992   -4504030.000
 -15.84500027   -4504246.500
 -15.79749966   -4504465.000
