 -30.00000000   10087212.00
 -29.95249939   10087723.00
 -29.90500069   10088233.00
 -29.85750008   10088741.00
 -29.80999947   10089244.00
 -29.76250076   10089749.00
 -29.71500015   10090251.00
 -29.66749954   10090754.00
 -29.62000084   10091259.00
 -29.57250023   10091766.00
 -29.52499962   10092274.00
 -29.47750092   10092785.00
 -29.43000031   10093300.00
 -29.38249969   10093816.00
 -29.33499908   10094332.00
 -29.28750038   10094848.00
 -29.23999977   10095364.00
 -29.19249916   10095878.00
 -29.14500046   10096392.00
 -29.09749985   10096905.00
 -29.04999924   10097416.00
 -29.00250053   10097929.00
 -28.95499992   10098442.00
 -28.90749931   10098954.00
 -28.86000061   10099465.00
 -28.81250000   10099975.00
 -28.76499939   10100485.00
 -28.71750069   10100993.00
 -28.67000008   10101503.00
 -28.62249947   10102014.00
 -28.57500076   10102529.00
 -28.52750015   10103049.00
 -28.47999954   10103573.00
 -28.43250084   10104105.00
 -28.38500023   10104639.00
 -28.33749962   10105177.00
 -28.29000092   10105714.00
 -28.24250031   10106250.00
 -28.19499969   10106781.00
 -28.14749908   10107304.00
 -28.10000038   10107821.00
 -28.05249977   10108334.00
 -28.00499916   10108841.00
 -27.95750046   10109346.00
 -27.90999985   10109851.00
 -27.86249924   10110358.00
 -27.81500053   10110867.00
 -27.76749992   10111380.00
 -27.71999931   10111897.00
 -27.67250061   10112417.00
 -27.62500000   10112938.00
 -27.57749939   10113457.00
 -27.53000069   10113979.00
 -27.48250008   10114499.00
 -27.43499947   10115017.00
 -27.38750076   10115534.00
 -27.34000015   10116049.00
 -27.29249954   10116564.00
 -27.24500084   10117077.00
 -27.19750023   10117590.00
 -27.14999962   10118102.00
 -27.10250092   10118613.00
 -27.05500031   10119122.00
 -27.00749969   10119631.00
 -26.95999908   10120138.00
 -26.91250038   10120644.00
 -26.86499977   10121151.00
 -26.81749916   10121658.00
 -26.77000046   10122164.00
 -26.72249985   10122673.00
 -26.67499924   10123184.00
 -26.62750053   10123692.00
 -26.57999992   10124204.00
 -26.53249931   10124716.00
 -26.48500061   10125229.00
 -26.43750000   10125741.00
 -26.38999939   10126255.00
 -26.34250069   10126769.00
 -26.29500008   10127283.00
 -26.24749947   10127797.00
 -26.20000076   10128314.00
 -26.15250015   10128831.00
 -26.10499954   10129350.00
 -26.05750084   10129867.00
 -26.01000023   10130388.00
 -25.96249962   10130908.00
 -25.91500092   10131427.00
 -25.86750031   10131947.00
 -25.81999969   10132466.00
 -25.77249908   10132986.00
 -25.72500038   10133505.00
 -25.67749977   10134024.00
 -25.62999916   10134544.00
 -25.58250046   10135065.00
 -25.53499985   10135584.00
 -25.48749924   10136105.00
 -25.44000053   10136625.00
 -25.39249992   10137142.00
 -25.34499931   10137657.00
 -25.29750061   10138171.00
 -25.25000000   10138683.00
 -25.20249939   10139196.00
 -25.15500069   10139709.00
 -25.10750008   10140221.00
 -25.05999947   10140734.00
 -25.01250076   10141249.00
 -24.96500015   10141763.00
 -24.91749954   10142278.00
 -24.87000084   10142792.00
 -24.82250023   10143306.00
 -24.77499962   10143821.00
 -24.72750092   10144339.00
 -24.68000031   10144856.00
 -24.63249969   10145379.00
 -24.58499908   10145902.00
 -24.53750038   10146425.00
 -24.48999977   10146948.00
 -24.44249916   10147470.00
 -24.39500046   10147989.00
 -24.34749985   10148504.00
 -24.29999924   10149014.00
 -24.25250053   10149522.00
 -24.20499992   10150031.00
 -24.15749931   10150538.00
 -24.11000061   10151051.00
 -24.06250000   10151566.00
 -24.01499939   10152086.00
 -23.96750069   10152611.00
 -23.92000008   10153137.00
 -23.87249947   10153664.00
 -23.82500076   10154190.00
 -23.77750015   10154714.00
 -23.72999954   10155236.00
 -23.68250084   10155754.00
 -23.63500023   10156275.00
 -23.58749962   10156794.00
 -23.54000092   10157316.00
 -23.49250031   10157839.00
 -23.44499969   10158363.00
 -23.39749908   10158886.00
 -23.35000038   10159408.00
 -23.30249977   10159929.00
 -23.25499916   10160446.00
 -23.20750046   10160959.00
 -23.15999985   10161472.00
 -23.11249924   10161981.00
 -23.06500053   10162494.00
 -23.01749992   10163010.00
 -22.96999931   10163528.00
 -22.92250061   10164049.00
 -22.87500000   10164573.00
 -22.82749939   10165100.00
 -22.78000069   10165623.00
 -22.73250008   10166149.00
 -22.68499947   10166674.00
 -22.63750076   10167196.00
 -22.59000015   10167718.00
 -22.54249954   10168243.00
 -22.49500084   10168767.00
 -22.44750023   10169292.00
 -22.39999962   10169819.00
 -22.35250092   10170347.00
 -22.30500031   10170873.00
 -22.25749969   10171399.00
 -22.20999908   10171920.00
 -22.16250038   10172439.00
 -22.11499977   10172957.00
 -22.06749916   10173473.00
 -22.02000046   10173989.00
 -21.97249985   10174506.00
 -21.92499924   10175024.00
 -21.87750053   10175546.00
 -21.82999992   10176071.00
 -21.78249931   10176597.00
 -21.73500061   10177125.00
 -21.68750000   10177656.00
 -21.63999939   10178184.00
 -21.59250069   10178714.00
 -21.54500008   10179242.00
 -21.49749947   10179769.00
 -21.45000076   10180295.00
 -21.40250015   10180817.00
 -21.35499954   10181341.00
 -21.30750084   10181863.00
 -21.26000023   10182384.00
 -21.21249962   10182905.00
 -21.16500092   10183425.00
 -21.11750031   10183946.00
 -21.06999969   10184463.00
 -21.02249908   10184981.00
 -20.97500038   10185496.00
 -20.92749977   10186009.00
 -20.87999916   10186519.00
 -20.83250046   10187028.00
 -20.78499985   10187534.00
 -20.73749924   10188042.00
 -20.69000053   10188548.00
 -20.64249992   10189058.00
 -20.59499931   10189566.00
 -20.54750061   10190077.00
 -20.50000000   10190589.00
 -20.45249939   10191098.00
 -20.40500069   10191607.00
 -20.35750008   10192112.00
 -20.30999947   10192614.00
 -20.26250076   10193116.00
 -20.21500015   10193618.00
 -20.16749954   10194123.00
 -20.12000084   10194632.00
 -20.07250023   10195146.00
 -20.02499962   10195664.00
 -19.97750092   10196187.00
 -19.93000031   10196713.00
 -19.88249969   10197237.00
 -19.83499908   10197758.00
 -19.78750038   10198276.00
 -19.73999977   10198791.00
 -19.69249916   10199301.00
 -19.64500046   10199810.00
 -19.59749985   10200319.00
 -19.54999924   10200830.00
 -19.50250053   10201345.00
 -19.45499992   10201861.00
 -19.40749931   10202382.00
 -19.36000061   10202901.00
 -19.31250000   10203418.00
 -19.26499939   10203932.00
 -19.21750069   10204442.00
 -19.17000008   10204948.00
 -19.12249947   10205452.00
 -19.07500076   10205955.00
 -19.02750015   10206458.00
 -18.97999954   10206969.00
 -18.93250084   10207482.00
 -18.88500023   10208001.00
 -18.83749962   10208522.00
 -18.79000092   10209043.00
 -18.74250031   10209564.00
 -18.69499969   10210082.00
 -18.64749908   10210598.00
 -18.60000038   10211108.00
 -18.55249977   10211615.00
 -18.50499916   10212121.00
 -18.45750046   10212628.00
 -18.40999985   10213138.00
 -18.36249924   10213652.00
 -18.31500053   10214170.00
 -18.26749992   10214693.00
 -18.21999931   10215219.00
 -18.17250061   10215747.00
 -18.12500000   10216278.00
 -18.07749939   10216805.00
 -18.03000069   10217331.00
 -17.98250008   10217857.00
 -17.93499947   10218381.00
 -17.88750076   10218904.00
 -17.84000015   10219427.00
 -17.79249954   10219952.00
 -17.74500084   10220477.00
 -17.69750023   10221006.00
 -17.64999962   10221535.00
 -17.60250092   10222064.00
 -17.55500031   10222594.00
 -17.50749969   10223120.00
 -17.45999908   10223644.00
 -17.41250038   10224164.00
 -17.36499977   10224681.00
 -17.31749916   10225195.00
 -17.27000046   10225706.00
 -17.22249985   10226217.00
 -17.17499924   10226729.00
 -17.12750053   10227241.00
 -17.07999992   10227756.00
 -17.03249931   10228274.00
 -16.98500061   10228792.00
 -16.93750000   10229312.00
 -16.88999939   10229833.00
 -16.84250069   10230356.00
 -16.79500008   10230877.00
 -16.74749947   10231400.00
 -16.70000076   10231920.00
 -16.65250015   10232438.00
 -16.60499954   10232956.00
 -16.55750084   10233471.00
 -16.51000023   10233989.00
 -16.46249962   10234507.00
 -16.41500092   10235027.00
 -16.36750031   10235548.00
 -16.31999969   10236071.00
 -16.27249908   10236594.00
 -16.22500038   10237117.00
 -16.17749977   10237639.00
 -16.12999916   10238159.00
 -16.08250046   10238675.00
 -16.03499985   10239190.00
 -15.98750019   10239701.00
 -15.93999958   10240212.00
 -15.89249992   10240721.00
 -15.84500027   10241234.00
 -15.79749966   10241748.00
