 -30.00000000   7307274.500
 -29.95249939   7307650.000
 -29.90500069   7308026.000
 -29.85750008   7308403.500
 -29.80999947   7308781.500
 -29.76250076   7309160.500
 -29.71500015   7309537.000
 -29.66749954   7309912.500
 -29.62000084   7310287.000
 -29.57250023   7310659.500
 -29.52499962   7311032.000
 -29.47750092   7311405.000
 -29.43000031   7311779.000
 -29.38249969   7312155.000
 -29.33499908   7312532.500
 -29.28750038   7312913.000
 -29.23999977   7313292.000
 -29.19249916   7313672.500
 -29.14500046   7314051.500
 -29.09749985   7314427.500
 -29.04999924   7314802.500
 -29.00250053   7315175.500
 -28.95499992   7315548.500
 -28.90749931   7315919.000
 -28.86000061   7316292.000
 -28.81250000   7316667.000
 -28.76499939   7317045.500
 -28.71750069   7317424.500
 -28.67000008   7317806.500
 -28.62249947   7318187.500
 -28.57500076   7318567.500
 -28.52750015   7318946.500
 -28.47999954   7319322.500
 -28.43250084   7319696.000
 -28.38500023   7320068.000
 -28.33749962   7320440.500
 -28.29000092   7320811.500
 -28.24250031   7321185.500
 -28.19499969   7321562.000
 -28.14749908   7321941.000
 -28.10000038   7322323.000
 -28.05249977   7322708.000
 -28.00499916   7323093.000
 -27.95750046   7323476.500
 -27.90999985   7323858.000
 -27.86249924   7324237.000
 -27.81500053   7324611.500
 -27.76749992   7324985.000
 -27.71999931   7325356.500
 -27.67250061   7325728.500
 -27.62500000   7326105.500
 -27.57749939   7326482.000
 -27.53000069   7326863.500
 -27.48250008   7327247.000
 -27.43499947   7327631.000
 -27.38750076   7328015.500
 -27.34000015   7328396.500
 -27.29249954   7328777.000
 -27.24500084   7329154.500
 -27.19750023   7329528.500
 -27.14999962   7329901.000
 -27.10250092   7330274.000
 -27.05500031   7330648.500
 -27.00749969   7331025.000
 -26.95999908   7331405.500
 -26.91250038   7331786.000
 -26.86499977   7332170.500
 -26.81749916   7332554.000
 -26.77000046   7332935.500
 -26.72249985   7333316.000
 -26.67499924   7333693.500
 -26.62750053   7334069.000
 -26.57999992   7334443.000
 -26.53249931   7334816.000
 -26.48500061   7335188.000
 -26.43750000   7335564.000
 -26.38999939   7335941.500
 -26.34250069   7336321.000
 -26.29500008   7336702.500
 -26.24749947   7337085.000
 -26.20000076   7337468.500
 -26.15250015   7337849.000
 -26.10499954   7338227.500
 -26.05750084   7338605.000
 -26.01000023   7338977.000
 -25.96249962   7339347.500
 -25.91500092   7339719.000
 -25.86750031   7340090.500
 -25.81999969   7340463.500
 -25.77249908   7340837.500
 -25.72500038   7341216.500
 -25.67749977   7341599.500
 -25.62999916   7341983.000
 -25.58250046   7342366.500
 -25.53499985   7342751.000
 -25.48749924   7343131.500
 -25.44000053   7343510.500
 -25.39249992   7343886.500
 -25.34499931   7344260.000
 -25.29750061   7344633.500
 -25.25000000   7345006.500
 -25.20249939   7345381.000
 -25.15500069   7345759.000
 -25.10750008   7346140.500
 -25.05999947   7346524.000
 -25.01250076   7346907.000
 -24.96500015   7347292.000
 -24.91749954   7347674.000
 -24.87000084   7348053.000
 -24.82250023   7348429.500
 -24.77499962   7348802.500
 -24.72750092   7349174.500
 -24.68000031   7349543.500
 -24.63249969   7349916.000
 -24.58499908   7350289.500
 -24.53750038   7350667.500
 -24.48999977   7351047.500
 -24.44249916   7351431.000
 -24.39500046   7351815.500
 -24.34749985   7352199.000
 -24.29999924   7352581.500
 -24.25250053   7352960.500
 -24.20499992   7353336.500
 -24.15749931   7353708.500
 -24.11000061   7354080.000
 -24.06250000   7354450.500
 -24.01499939   7354823.000
 -23.96750069   7355198.000
 -23.92000008   7355576.500
 -23.87249947   7355960.000
 -23.82500076   7356345.000
 -23.77750015   7356728.500
 -23.72999954   7357113.500
 -23.68250084   7357494.000
 -23.63500023   7357870.500
 -23.58749962   7358243.500
 -23.54000092   7358613.500
 -23.49250031   7358982.000
 -23.44499969   7359349.500
 -23.39749908   7359721.500
 -23.35000038   7360097.500
 -23.30249977   7360477.000
 -23.25499916   7360860.000
 -23.20750046   7361244.500
 -23.15999985   7361629.500
 -23.11249924   7362011.500
 -23.06500053   7362390.500
 -23.01749992   7362764.000
 -22.96999931   7363134.500
 -22.92250061   7363503.500
 -22.87500000   7363870.500
 -22.82749939   7364240.500
 -22.78000069   7364612.500
 -22.73250008   7364991.500
 -22.68499947   7365373.000
 -22.63750076   7365758.500
 -22.59000015   7366146.000
 -22.54249954   7366532.000
 -22.49500084   7366915.500
 -22.44750023   7367295.000
 -22.39999962   7367672.000
 -22.35250092   7368043.000
 -22.30500031   7368414.000
 -22.25749969   7368783.500
 -22.20999908   7369155.000
 -22.16250038   7369531.000
 -22.11499977   7369908.500
 -22.06749916   7370290.500
 -22.02000046   7370675.500
 -21.97249985   7371060.500
 -21.92499924   7371443.500
 -21.87750053   7371824.000
 -21.82999992   7372203.000
 -21.78249931   7372576.500
 -21.73500061   7372947.000
 -21.68750000   7373320.000
 -21.63999939   7373692.000
 -21.59250069   7374067.500
 -21.54500008   7374446.500
 -21.49749947   7374827.000
 -21.45000076   7375210.500
 -21.40250015   7375594.500
 -21.35499954   7375976.500
 -21.30750084   7376355.500
 -21.26000023   7376731.000
 -21.21249962   7377104.500
 -21.16500092   7377473.500
 -21.11750031   7377843.500
 -21.06999969   7378215.000
 -21.02249908   7378587.000
 -20.97500038   7378962.000
 -20.92749977   7379343.500
 -20.87999916   7379725.500
 -20.83250046   7380110.500
 -20.78499985   7380495.500
 -20.73749924   7380878.500
 -20.69000053   7381259.500
 -20.64249992   7381636.500
 -20.59499931   7382012.500
 -20.54750061   7382383.500
 -20.50000000   7382756.000
 -20.45249939   7383129.000
 -20.40500069   7383505.500
 -20.35750008   7383882.000
 -20.30999947   7384261.000
 -20.26250076   7384642.500
 -20.21500015   7385022.000
 -20.16749954   7385402.000
 -20.12000084   7385777.000
 -20.07250023   7386150.000
 -20.02499962   7386520.500
 -19.97750092   7386889.500
 -19.93000031   7387257.500
 -19.88249969   7387628.000
 -19.83499908   7388001.000
 -19.78750038   7388377.000
 -19.73999977   7388756.500
 -19.69249916   7389138.500
 -19.64500046   7389522.000
 -19.59749985   7389905.000
 -19.54999924   7390285.500
 -19.50250053   7390665.000
 -19.45499992   7391041.000
 -19.40749931   7391415.500
 -19.36000061   7391787.000
 -19.31250000   7392158.000
 -19.26499939   7392531.000
 -19.21750069   7392906.500
 -19.17000008   7393282.500
 -19.12249947   7393662.000
 -19.07500076   7394042.500
 -19.02750015   7394423.000
 -18.97999954   7394803.500
 -18.93250084   7395182.500
 -18.88500023   7395558.500
 -18.83749962   7395932.000
 -18.79000092   7396304.500
 -18.74250031   7396675.000
 -18.69499969   7397045.500
 -18.64749908   7397419.000
 -18.60000038   7397795.000
 -18.55249977   7398172.500
 -18.50499916   7398553.000
 -18.45750046   7398936.000
 -18.40999985   7399318.500
 -18.36249924   7399700.500
 -18.31500053   7400082.000
 -18.26749992   7400462.500
 -18.21999931   7400841.500
 -18.17250061   7401219.000
 -18.12500000   7401598.000
 -18.07749939   7401976.000
 -18.03000069   7402356.000
 -17.98250008   7402736.500
 -17.93499947   7403116.000
 -17.88750076   7403496.000
 -17.84000015   7403872.500
 -17.79249954   7404250.000
 -17.74500084   7404625.000
 -17.69750023   7404998.000
 -17.64999962   7405370.000
 -17.60250092   7405743.000
 -17.55500031   7406116.000
 -17.50749969   7406490.500
 -17.45999908   7406868.500
 -17.41250038   7407248.500
 -17.36499977   7407629.500
 -17.31749916   7408012.500
 -17.27000046   7408395.000
 -17.22249985   7408777.000
 -17.17499924   7409156.000
 -17.12750053   7409533.000
 -17.07999992   7409909.000
 -17.03249931   7410284.000
 -16.98500061   7410657.500
 -16.93750000   7411032.000
 -16.88999939   7411409.000
 -16.84250069   7411787.000
 -16.79500008   7412166.000
 -16.74749947   7412547.500
 -16.70000076   7412926.500
 -16.65250015   7413305.500
 -16.60499954   NAN
 -16.55750084   NAN
 -16.51000023   NAN
 -16.46249962   NAN
 -16.41500092   NAN
 -16.36750031   NAN
 -16.31999969   NAN
 -16.27249908   NAN
 -16.22500038   NAN
 -16.17749977   NAN
 -16.12999916   NAN
 -16.08250046   NAN
 -16.03499985   NAN
 -15.98750019   NAN
 -15.93999958   NAN
 -15.89249992   NAN
 -15.84500027   NAN
 -15.79749966   NAN
