 -30.00000000   8252192.500
 -29.95249939   8252611.500
 -29.90500069   8253029.000
 -29.85750008   8253446.000
 -29.80999947   8253861.500
 -29.76250076   8254275.500
 -29.71500015   8254689.500
 -29.66749954   8255103.500
 -29.62000084   8255517.500
 -29.57250023   8255932.000
 -29.52499962   8256346.000
 -29.47750092   8256761.500
 -29.43000031   8257178.500
 -29.38249969   8257595.500
 -29.33499908   8258014.500
 -29.28750038   8258433.500
 -29.23999977   8258853.500
 -29.19249916   8259274.500
 -29.14500046   8259693.500
 -29.09749985   8260113.500
 -29.04999924   8260532.000
 -29.00250053   8260951.500
 -28.95499992   8261367.500
 -28.90749931   8261783.000
 -28.86000061   8262197.000
 -28.81250000   8262609.500
 -28.76499939   8263020.000
 -28.71750069   8263430.500
 -28.67000008   8263837.500
 -28.62249947   8264246.000
 -28.57500076   8264655.500
 -28.52750015   8265063.000
 -28.47999954   8265474.000
 -28.43250084   8265886.000
 -28.38500023   8266299.000
 -28.33749962   8266713.000
 -28.29000092   8267130.500
 -28.24250031   8267548.500
 -28.19499969   8267968.500
 -28.14749908   8268388.500
 -28.10000038   8268810.500
 -28.05249977   8269232.000
 -28.00499916   8269653.500
 -27.95750046   8270075.000
 -27.90999985   8270493.500
 -27.86249924   8270911.500
 -27.81500053   8271327.500
 -27.76749992   8271740.500
 -27.71999931   8272150.500
 -27.67250061   8272561.500
 -27.62500000   8272968.500
 -27.57749939   8273377.500
 -27.53000069   8273786.500
 -27.48250008   8274194.500
 -27.43499947   8274602.500
 -27.38750076   8275013.000
 -27.34000015   8275425.000
 -27.29249954   8275837.500
 -27.24500084   8276252.000
 -27.19750023   8276667.500
 -27.14999962   8277086.000
 -27.10250092   8277503.500
 -27.05500031   8277923.000
 -27.00749969   8278343.000
 -26.95999908   8278763.500
 -26.91250038   8279183.500
 -26.86499977   8279602.000
 -26.81749916   8280019.500
 -26.77000046   8280436.000
 -26.72249985   8280851.500
 -26.67499924   8281264.500
 -26.62750053   8281675.500
 -26.57999992   8282085.000
 -26.53249931   8282492.500
 -26.48500061   8282899.500
 -26.43750000   8283306.000
 -26.38999939   8283711.500
 -26.34250069   8284118.500
 -26.29500008   8284527.500
 -26.24749947   8284935.000
 -26.20000076   8285345.000
 -26.15250015   8285757.500
 -26.10499954   8286170.000
 -26.05750084   8286586.000
 -26.01000023   8287002.500
 -25.96249962   8287420.000
 -25.91500092   8287839.500
 -25.86750031   8288258.500
 -25.81999969   8288677.000
 -25.77249908   8289095.500
 -25.72500038   8289511.500
 -25.67749977   8289927.000
 -25.62999916   8290339.500
 -25.58250046   8290749.500
 -25.53499985   8291159.000
 -25.48749924   8291565.500
 -25.44000053   8291971.500
 -25.39249992   8292377.500
 -25.34499931   8292781.500
 -25.29750061   8293186.000
 -25.25000000   8293590.000
 -25.20249939   8293996.500
 -25.15500069   8294403.000
 -25.10750008   8294811.500
 -25.05999947   8295222.500
 -25.01250076   8295634.000
 -24.96500015   8296045.500
 -24.91749954   8296462.500
 -24.87000084   8296877.000
 -24.82250023   8297295.000
 -24.77499962   8297712.000
 -24.72750092   8298129.500
 -24.68000031   8298549.000
 -24.63249969   8298966.000
 -24.58499908   8299382.500
 -24.53750038   8299795.000
 -24.48999977   8300207.500
 -24.44249916   8300616.000
 -24.39500046   8301024.000
 -24.34749985   8301429.500
 -24.29999924   8301833.000
 -24.25250053   8302236.000
 -24.20499992   8302639.500
 -24.15749931   8303042.500
 -24.11000061   8303447.500
 -24.06250000   8303854.500
 -24.01499939   8304261.500
 -23.96750069   8304671.000
 -23.92000008   8305084.000
 -23.87249947   8305496.500
 -23.82500076   8305911.000
 -23.77750015   8306328.000
 -23.72999954   8306743.500
 -23.68250084   8307162.000
 -23.63500023   8307578.500
 -23.58749962   8307994.500
 -23.54000092   8308409.000
 -23.49250031   8308822.500
 -23.44499969   8309232.500
 -23.39749908   8309642.000
 -23.35000038   8310048.000
 -23.30249977   8310453.500
 -23.25499916   8310858.000
 -23.20750046   8311262.500
 -23.15999985   8311667.500
 -23.11249924   8312073.000
 -23.06500053   8312480.000
 -23.01749992   8312888.500
 -22.96999931   8313298.000
 -22.92250061   8313709.000
 -22.87500000   8314121.000
 -22.82749939   8314534.500
 -22.78000069   8314946.000
 -22.73250008   8315360.500
 -22.68499947   8315774.500
 -22.63750076   8316188.000
 -22.59000015   8316603.000
 -22.54249954   8317018.000
 -22.49500084   8317431.000
 -22.44750023   8317846.000
 -22.39999962   8318259.000
 -22.35250092   8318670.500
 -22.30500031   8319081.500
 -22.25749969   8319492.500
 -22.20999908   8319899.500
 -22.16250038   8320305.500
 -22.11499977   8320711.500
 -22.06749916   8321117.000
 -22.02000046   8321520.000
 -21.97249985   8321924.000
 -21.92499924   8322326.000
 -21.87750053   8322730.000
 -21.82999992   8323133.500
 -21.78249931   8323540.500
 -21.73500061   8323946.000
 -21.68750000   8324354.000
 -21.63999939   8324764.000
 -21.59250069   8325174.000
 -21.54500008   8325588.000
 -21.49749947   8326000.500
 -21.45000076   8326415.500
 -21.40250015   8326831.000
 -21.35499954   8327244.500
 -21.30750084   8327658.500
 -21.26000023   8328070.500
 -21.21249962   8328479.500
 -21.16500092   8328888.000
 -21.11750031   8329295.000
 -21.06999969   8329700.000
 -21.02249908   8330105.500
 -20.97500038   8330508.500
 -20.92749977   8330911.000
 -20.87999916   8331316.000
 -20.83250046   8331720.000
 -20.78499985   8332125.000
 -20.73749924   8332531.000
 -20.69000053   8332938.000
 -20.64249992   8333346.000
 -20.59499931   8333757.000
 -20.54750061   8334168.000
 -20.50000000   8334582.500
 -20.45249939   8334996.500
 -20.40500069   8335411.000
 -20.35750008   8335825.500
 -20.30999947   8336240.500
 -20.26250076   8336655.000
 -20.21500015   8337067.500
 -20.16749954   8337481.500
 -20.12000084   8337893.000
 -20.07250023   8338304.000
 -20.02499962   8338715.500
 -19.97750092   8339125.000
 -19.93000031   8339535.000
 -19.88249969   8339943.000
 -19.83499908   8340350.500
 -19.78750038   8340757.000
 -19.73999977   8341162.500
 -19.69249916   8341567.500
 -19.64500046   8341973.000
 -19.59749985   8342378.500
 -19.54999924   8342785.000
 -19.50250053   8343194.000
 -19.45499992   8343604.500
 -19.40749931   8344018.500
 -19.36000061   8344434.500
 -19.31250000   8344851.500
 -19.26499939   8345270.000
 -19.21750069   8345690.500
 -19.17000008   8346110.000
 -19.12249947   8346527.500
 -19.07500076   8346942.500
 -19.02750015   8347354.500
 -18.97999954   8347762.500
 -18.93250084   8348169.000
 -18.88500023   8348574.500
 -18.83749962   8348975.500
 -18.79000092   8349375.500
 -18.74250031   8349777.500
 -18.69499969   8350177.000
 -18.64749908   8350580.000
 -18.60000038   8350984.000
 -18.55249977   8351390.000
 -18.50499916   8351798.500
 -18.45750046   8352210.000
 -18.40999985   8352624.000
 -18.36249924   8353038.000
 -18.31500053   8353455.000
 -18.26749992   8353871.000
 -18.21999931   8354288.000
 -18.17250061   8354703.500
 -18.12500000   8355116.500
 -18.07749939   8355531.500
 -18.03000069   8355941.500
 -17.98250008   8356352.500
 -17.93499947   8356762.500
 -17.88750076   8357171.500
 -17.84000015   8357582.500
 -17.79249954   8357991.000
 -17.74500084   8358402.000
 -17.69750023   8358813.000
 -17.64999962   8359222.500
 -17.60250092   8359633.000
 -17.55500031   8360045.000
 -17.50749969   8360456.500
 -17.45999908   8360866.500
 -17.41250038   8361276.000
 -17.36499977   8361685.500
 -17.31749916   8362094.000
 -17.27000046   8362504.000
 -17.22249985   8362912.000
 -17.17499924   8363323.000
 -17.12750053   8363733.500
 -17.07999992   8364144.500
 -17.03249931   8364557.000
 -16.98500061   8364968.000
 -16.93750000   8365381.000
 -16.88999939   8365795.000
 -16.84250069   8366209.500
 -16.79500008   8366623.500
 -16.74749947   8367037.500
 -16.70000076   8367450.000
 -16.65250015   8367862.000
 -16.60499954   NAN
 -16.55750084   NAN
 -16.51000023   NAN
 -16.46249962   NAN
 -16.41500092   NAN
 -16.36750031   NAN
 -16.31999969   NAN
 -16.27249908   NAN
 -16.22500038   NAN
 -16.17749977   NAN
 -16.12999916   NAN
 -16.08250046   NAN
 -16.03499985   NAN
 -15.98750019   NAN
 -15.93999958   NAN
 -15.89249992   NAN
 -15.84500027   NAN
 -15.79749966   NAN
