 -30.00000000   -535170.9375
 -29.95249939   -535196.5000
 -29.90500069   -535222.1250
 -29.85750008   -535245.6250
 -29.80999947   -535268.8125
 -29.76250076   -535291.6875
 -29.71500015   -535314.0625
 -29.66749954   -535336.6875
 -29.62000084   -535360.3750
 -29.57250023   -535383.1875
 -29.52499962   -535406.4375
 -29.47750092   -535431.5000
 -29.43000031   -535455.5625
 -29.38249969   -535481.8750
 -29.33499908   -535507.2500
 -29.28750038   -535533.1875
 -29.23999977   -535561.1875
 -29.19249916   -535587.5000
 -29.14500046   -535613.6250
 -29.09749985   -535640.7500
 -29.04999924   -535664.8750
 -29.00250053   -535691.0625
 -28.95499992   -535714.3125
 -28.90749931   -535737.7500
 -28.86000061   -535759.8750
 -28.81250000   -535781.0000
 -28.76499939   -535801.9375
 -28.71750069   -535821.9375
 -28.67000008   -535842.7500
 -28.62249947   -535860.5625
 -28.57500076   -535880.5625
 -28.52750015   -535900.8125
 -28.47999954   -535922.4375
 -28.43250084   -535942.0625
 -28.38500023   -535965.1875
 -28.33749962   -535990.2500
 -28.29000092   -536014.0625
 -28.24250031   -536041.0625
 -28.19499969   -536067.8125
 -28.14749908   -536095.5000
 -28.10000038   -536124.8125
 -28.05249977   -536153.1875
 -28.00499916   -536181.6250
 -27.95750046   -536209.1875
 -27.90999985   -536236.3125
 -27.86249924   -536263.1875
 -27.81500053   -536288.7500
 -27.76749992   -536312.3750
 -27.71999931   -536334.7500
 -27.67250061   -536356.5000
 -27.62500000   -536376.6250
 -27.57749939   -536396.7500
 -27.53000069   -536416.0625
 -27.48250008   -536435.5625
 -27.43499947   -536456.1875
 -27.38750076   -536476.4375
 -27.34000015   -536499.8125
 -27.29249954   -536522.4375
 -27.24500084   -536548.1250
 -27.19750023   -536573.5625
 -27.14999962   -536600.8750
 -27.10250092   -536628.5000
 -27.05500031   -536655.8750
 -27.00749969   -536685.3125
 -26.95999908   -536713.7500
 -26.91250038   -536740.0625
 -26.86499977   -536766.5625
 -26.81749916   -536791.1875
 -26.77000046   -536814.1875
 -26.72249985   -536836.8125
 -26.67499924   -536857.7500
 -26.62750053   -536879.3125
 -26.57999992   -536898.8750
 -26.53249931   -536917.6875
 -26.48500061   -536937.1875
 -26.43750000   -536957.6250
 -26.38999939   -536980.4375
 -26.34250069   -537001.1250
 -26.29500008   -537024.5625
 -26.24749947   -537048.3750
 -26.20000076   -537072.2500
 -26.15250015   -537099.2500
 -26.10499954   -537125.4375
 -26.05750084   -537151.8125
 -26.01000023   -537178.0000
 -25.96249962   -537205.5000
 -25.91500092   -537231.9375
 -25.86750031   -537258.0000
 -25.81999969   -537286.4375
 -25.77249908   -537310.1250
 -25.72500038   -537335.1875
 -25.67749977   -537359.8125
 -25.62999916   -537385.1250
 -25.58250046   -537408.3125
 -25.53499985   -537432.5625
 -25.48749924   -537455.9375
 -25.44000053   -537477.6875
 -25.39249992   -537501.1250
 -25.34499931   -537523.6875
 -25.29750061   -537546.1875
 -25.25000000   -537567.5625
 -25.20249939   -537591.6250
 -25.15500069   -537613.6875
 -25.10750008   -537637.0625
 -25.05999947   -537661.7500
 -25.01250076   -537685.8750
 -24.96500015   -537712.1250
 -24.91749954   -537739.9375
 -24.87000084   -537765.8125
 -24.82250023   -537792.9375
 -24.77499962   -537818.7500
 -24.72750092   -537845.5625
 -24.68000031   -537871.5625
 -24.63249969   -537897.3125
 -24.58499908   -537921.7500
 -24.53750038   -537945.2500
 -24.48999977   -537968.5625
 -24.44249916   -537990.1875
 -24.39500046   -538012.3125
 -24.34749985   -538032.8750
 -24.29999924   -538054.1250
 -24.25250053   -538075.1875
 -24.20499992   -538096.7500
 -24.15749931   -538119.1875
 -24.11000061   -538140.1250
 -24.06250000   -538162.8750
 -24.01499939   -538185.3125
 -23.96750069   -538209.7500
 -23.92000008   -538233.3125
 -23.87249947   -538258.3125
 -23.82500076   -538281.8750
 -23.77750015   -538306.1875
 -23.72999954   -538331.6250
 -23.68250084   -538356.0625
 -23.63500023   -538379.9375
 -23.58749962   -538403.1250
 -23.54000092   -538427.2500
 -23.49250031   -538452.4375
 -23.44499969   -538477.5000
 -23.39749908   -538504.0000
 -23.35000038   -538529.6875
 -23.30249977   -538555.8750
 -23.25499916   -538583.4375
 -23.20750046   -538610.6875
 -23.15999985   -538637.6250
 -23.11249924   -538663.5625
 -23.06500053   -538689.4375
 -23.01749992   -538713.7500
 -22.96999931   -538736.8750
 -22.92250061   -538760.6250
 -22.87500000   -538782.7500
 -22.82749939   -538803.1875
 -22.78000069   -538824.8750
 -22.73250008   -538847.7500
 -22.68499947   -538871.1250
 -22.63750076   -538894.4375
 -22.59000015   -538918.5625
 -22.54249954   -538945.5625
 -22.49500084   -538972.0000
 -22.44750023   -539000.0625
 -22.39999962   -539027.9375
 -22.35250092   -539055.5000
 -22.30500031   -539083.7500
 -22.25749969   -539109.8125
 -22.20999908   -539135.8125
 -22.16250038   -539159.6250
 -22.11499977   -539183.1250
 -22.06749916   -539205.5000
 -22.02000046   -539228.3750
 -21.97249985   -539250.8750
 -21.92499924   -539273.9375
 -21.87750053   -539297.3125
 -21.82999992   -539320.5000
 -21.78249931   -539344.5000
 -21.73500061   -539369.5000
 -21.68750000   -539394.5000
 -21.63999939   -539422.1250
 -21.59250069   -539449.9375
 -21.54500008   -539477.9375
 -21.49749947   -539505.6875
 -21.45000076   -539534.3750
 -21.40250015   -539560.5625
 -21.35499954   -539585.8125
 -21.30750084   -539609.7500
 -21.26000023   -539634.2500
 -21.21249962   -539657.5000
 -21.16500092   -539680.8750
 -21.11750031   -539703.5625
 -21.06999969   -539727.0000
 -21.02249908   -539751.6875
 -20.97500038   -539776.5000
 -20.92749977   -539801.0625
 -20.87999916   -539828.5625
 -20.83250046   -539855.4375
 -20.78499985   -539881.2500
 -20.73749924   -539908.4375
 -20.69000053   -539935.5000
 -20.64249992   -539960.8125
 -20.59499931   -539988.6250
 -20.54750061   -540014.3750
 -20.50000000   -540040.5000
 -20.45249939   -540067.0000
 -20.40500069   -540094.5000
 -20.35750008   -540121.3125
 -20.30999947   -540148.6250
 -20.26250076   -540175.6875
 -20.21500015   -540202.3125
 -20.16749954   -540228.5000
 -20.12000084   -540255.2500
 -20.07250023   -540281.6875
 -20.02499962   -540306.6875
 -19.97750092   -540330.7500
 -19.93000031   -540355.1250
 -19.88249969   -540378.6250
 -19.83499908   -540400.7500
 -19.78750038   -540423.0000
 -19.73999977   -540444.8125
 -19.69249916   -540466.4375
 -19.64500046   -540486.6250
 -19.59749985   -540510.0625
 -19.54999924   -540533.4375
 -19.50250053   -540557.8125
 -19.45499992   -540584.1875
 -19.40749931   -540611.1875
 -19.36000061   -540640.1875
 -19.31250000   -540670.0000
 -19.26499939   -540701.3125
 -19.21750069   -540731.3125
 -19.17000008   -540762.8750
 -19.12249947   -540792.0625
 -19.07500076   -540820.5000
 -19.02750015   -540846.8125
 -18.97999954   -540871.6250
 -18.93250084   -540895.8750
 -18.88500023   -540917.8750
 -18.83749962   -540941.5000
 -18.79000092   -540962.1250
 -18.74250031   -540984.1250
 -18.69499969   -541006.8125
 -18.64749908   -541030.8750
 -18.60000038   -541055.3750
 -18.55249977   -541083.3125
 -18.50499916   -541112.1875
 -18.45750046   -541141.5625
 -18.40999985   -541172.7500
 -18.36249924   -541206.1250
 -18.31500053   -541238.3750
 -18.26749992   -541270.1250
 -18.21999931   -541301.0625
 -18.17250061   -541329.0625
 -18.12500000   -541356.3125
 -18.07749939   -541381.0000
 -18.03000069   -541405.0625
 -17.98250008   -541428.7500
 -17.93499947   -541447.5625
 -17.88750076   -541466.8125
 -17.84000015   -541487.3750
 -17.79249954   -541507.5000
 -17.74500084   -541529.4375
 -17.69750023   -541553.8125
 -17.64999962   -541579.1250
 -17.60250092   -541605.6875
 -17.55500031   -541633.3125
 -17.50749969   -541661.8125
 -17.45999908   -541691.3125
 -17.41250038   -541719.3750
 -17.36499977   -541746.0625
 -17.31749916   -541772.1250
 -17.27000046   -541799.6250
 -17.22249985   -541825.6250
 -17.17499924   -541850.3750
 -17.12750053   -541874.9375
 -17.07999992   -541901.6250
 -17.03249931   -541928.3125
 -16.98500061   -541954.1875
 -16.93750000   -541980.1250
 -16.88999939   -542008.7500
 -16.84250069   -542035.2500
 -16.79500008   -542060.6875
 -16.74749947   -542086.3125
 -16.70000076   -542112.0625
 -16.65250015   -542134.5625
 -16.60499954   NAN
 -16.55750084   NAN
 -16.51000023   NAN
 -16.46249962   NAN
 -16.41500092   NAN
 -16.36750031   NAN
 -16.31999969   NAN
 -16.27249908   NAN
 -16.22500038   NAN
 -16.17749977   NAN
 -16.12999916   NAN
 -16.08250046   NAN
 -16.03499985   NAN
 -15.98750019   NAN
 -15.93999958   NAN
 -15.89249992   NAN
 -15.84500027   NAN
 -15.79749966   NAN
