 -30.00000000   -140619.6875
 -29.95249939   -140634.6406
 -29.90500069   -140656.1562
 -29.85750008   -140681.9531
 -29.80999947   -140712.0312
 -29.76250076   -140743.0781
 -29.71500015   -140774.9062
 -29.66749954   -140804.2656
 -29.62000084   -140829.5156
 -29.57250023   -140849.5312
 -29.52499962   -140864.8594
 -29.47750092   -140875.0156
 -29.43000031   -140882.6562
 -29.38249969   -140885.7188
 -29.33499908   -140888.3594
 -29.28750038   -140889.6094
 -29.23999977   -140892.2500
 -29.19249916   -140898.0156
 -29.14500046   -140904.0312
 -29.09749985   -140914.4219
 -29.04999924   -140926.4062
 -29.00250053   -140941.1875
 -28.95499992   -140959.0938
 -28.90749931   -140975.2656
 -28.86000061   -140993.3281
 -28.81250000   -141010.7656
 -28.76499939   -141031.0781
 -28.71750069   -141050.1250
 -28.67000008   -141071.2188
 -28.62249947   -141093.2500
 -28.57500076   -141118.9062
 -28.52750015   -141145.2656
 -28.47999954   -141176.8750
 -28.43250084   -141209.8438
 -28.38500023   -141244.3750
 -28.33749962   -141279.8594
 -28.29000092   -141312.4844
 -28.24250031   -141343.8125
 -28.19499969   -141370.7344
 -28.14749908   -141391.6719
 -28.10000038   -141406.3125
 -28.05249977   -141416.1875
 -28.00499916   -141419.1406
 -27.95750046   -141419.2812
 -27.90999985   -141415.9688
 -27.86249924   -141413.3281
 -27.81500053   -141411.8594
 -27.76749992   -141415.4531
 -27.71999931   -141423.6875
 -27.67250061   -141439.1094
 -27.62500000   -141459.7812
 -27.57749939   -141487.5781
 -27.53000069   -141517.3125
 -27.48250008   -141553.2656
 -27.43499947   -141589.0469
 -27.38750076   -141623.4844
 -27.34000015   -141655.8438
 -27.29249954   -141685.3281
 -27.24500084   -141709.4688
 -27.19750023   -141729.7656
 -27.14999962   -141745.7812
 -27.10250092   -141758.5156
 -27.05500031   -141769.2969
 -27.00749969   -141776.9688
 -26.95999908   -141785.3438
 -26.91250038   -141795.0312
 -26.86499977   -141807.2031
 -26.81749916   -141822.4531
 -26.77000046   -141843.8750
 -26.72249985   -141869.1875
 -26.67499924   -141900.4844
 -26.62750053   -141935.8438
 -26.57999992   -141975.8438
 -26.53249931   -142017.5781
 -26.48500061   -142060.8281
 -26.43750000   -142104.2500
 -26.38999939   -142144.1250
 -26.34250069   -142181.6250
 -26.29500008   -142214.6094
 -26.24749947   -142241.5469
 -26.20000076   -142263.6250
 -26.15250015   -142279.5000
 -26.10499954   -142289.5938
 -26.05750084   -142296.3750
 -26.01000023   -142297.9844
 -25.96249962   -142298.5625
 -25.91500092   -142299.3281
 -25.86750031   -142299.2344
 -25.81999969   -142301.4062
 -25.77249908   -142308.3125
 -25.72500038   -142317.2969
 -25.67749977   -142331.2969
 -25.62999916   -142348.3750
 -25.58250046   -142370.7344
 -25.53499985   -142394.5312
 -25.48749924   -142420.7500
 -25.44000053   -142448.4531
 -25.39249992   -142476.7812
 -25.34499931   -142503.4375
 -25.29750061   -142528.9062
 -25.25000000   -142552.7969
 -25.20249939   -142573.7031
 -25.15500069   -142591.8594
 -25.10750008   -142608.9844
 -25.05999947   -142624.5156
 -25.01250076   -142637.5625
 -24.96500015   -142649.8281
 -24.91749954   -142661.0156
 -24.87000084   -142670.4688
 -24.82250023   -142679.3750
 -24.77499962   -142687.5156
 -24.72750092   -142695.2344
 -24.68000031   -142702.7031
 -24.63249969   -142710.8750
 -24.58499908   -142721.3906
 -24.53750038   -142732.8125
 -24.48999977   -142745.8125
 -24.44249916   -142761.0000
 -24.39500046   -142776.6562
 -24.34749985   -142793.3750
 -24.29999924   -142810.7812
 -24.25250053   -142829.4062
 -24.20499992   -142847.1094
 -24.15749931   -142867.0938
 -24.11000061   -142886.4375
 -24.06250000   -142910.0156
 -24.01499939   -142933.6406
 -23.96750069   -142958.6094
 -23.92000008   -142985.4531
 -23.87249947   -143013.3281
 -23.82500076   -143041.5625
 -23.77750015   -143068.7188
 -23.72999954   -143093.9688
 -23.68250084   -143117.9219
 -23.63500023   -143140.1250
 -23.58749962   -143158.6719
 -23.54000092   -143174.0781
 -23.49250031   -143186.5938
 -23.44499969   -143198.6562
 -23.39749908   -143209.0000
 -23.35000038   -143218.7969
 -23.30249977   -143229.2344
 -23.25499916   -143239.5469
 -23.20750046   -143252.0938
 -23.15999985   -143265.6719
 -23.11249924   -143282.5781
 -23.06500053   -143302.2344
 -23.01749992   -143323.2344
 -22.96999931   -143345.7656
 -22.92250061   -143368.9688
 -22.87500000   -143392.5000
 -22.82749939   -143415.5469
 -22.78000069   -143436.5938
 -22.73250008   -143456.2188
 -22.68499947   -143472.9062
 -22.63750076   -143487.0781
 -22.59000015   -143496.8438
 -22.54249954   -143503.4531
 -22.49500084   -143507.8125
 -22.44750023   -143509.6250
 -22.39999962   -143509.7031
 -22.35250092   -143510.5469
 -22.30500031   -143510.5781
 -22.25749969   -143510.4219
 -22.20999908   -143511.7969
 -22.16250038   -143516.0469
 -22.11499977   -143519.3438
 -22.06749916   -143525.9688
 -22.02000046   -143532.8125
 -21.97249985   -143541.0469
 -21.92499924   -143551.0469
 -21.87750053   -143563.5938
 -21.82999992   -143574.7969
 -21.78249931   -143586.5312
 -21.73500061   -143598.4375
 -21.68750000   -143609.1094
 -21.63999939   -143617.9688
 -21.59250069   -143626.2031
 -21.54500008   -143630.5469
 -21.49749947   -143633.8594
 -21.45000076   -143633.6719
 -21.40250015   -143631.3906
 -21.35499954   -143627.1875
 -21.30750084   -143622.4062
 -21.26000023   -143617.0312
 -21.21249962   -143611.6562
 -21.16500092   -143608.3750
 -21.11750031   -143608.3594
 -21.06999969   -143612.1875
 -21.02249908   -143620.6562
 -20.97500038   -143635.6719
 -20.92749977   -143654.4062
 -20.87999916   -143678.8438
 -20.83250046   -143708.5156
 -20.78499985   -143739.4219
 -20.73749924   -143771.1719
 -20.69000053   -143803.1875
 -20.64249992   -143831.3594
 -20.59499931   -143857.2031
 -20.54750061   -143874.9375
 -20.50000000   -143888.2031
 -20.45249939   -143893.4844
 -20.40500069   -143892.5469
 -20.35750008   -143885.3906
 -20.30999947   -143875.3750
 -20.26250076   -143861.8594
 -20.21500015   -143847.0000
 -20.16749954   -143832.5000
 -20.12000084   -143819.9062
 -20.07250023   -143808.0781
 -20.02499962   -143801.8125
 -19.97750092   -143799.3906
 -19.93000031   -143801.7969
 -19.88249969   -143807.1406
 -19.83499908   -143817.1562
 -19.78750038   -143831.5000
 -19.73999977   -143848.0469
 -19.69249916   -143868.7500
 -19.64500046   -143889.2812
 -19.59749985   -143912.9219
 -19.54999924   -143934.0469
 -19.50250053   -143955.9375
 -19.45499992   -143975.4375
 -19.40749931   -143991.0312
 -19.36000061   -144003.6875
 -19.31250000   -144012.8438
 -19.26499939   -144016.8281
 -19.21750069   -144015.7656
 -19.17000008   -144010.3125
 -19.12249947   -144001.8281
 -19.07500076   -143990.6875
 -19.02750015   -143980.9062
 -18.97999954   -143970.1406
 -18.93250084   -143962.2500
 -18.88500023   -143958.9531
 -18.83749962   -143958.4844
 -18.79000092   -143962.6562
 -18.74250031   -143971.0625
 -18.69499969   -143982.5938
 -18.64749908   -143999.5625
 -18.60000038   -144018.3281
 -18.55249977   -144038.2969
 -18.50499916   -144058.1250
 -18.45750046   -144077.1719
 -18.40999985   -144092.9219
 -18.36249924   -144104.5938
 -18.31500053   -144113.6719
 -18.26749992   -144117.2656
 -18.21999931   -144118.0625
 -18.17250061   -144113.1406
 -18.12500000   -144105.2812
 -18.07749939   -144094.8438
 -18.03000069   -144085.1562
 -17.98250008   -144075.5000
 -17.93499947   -144066.4531
 -17.88750076   -144059.7656
 -17.84000015   -144054.8594
 -17.79249954   -144053.5000
 -17.74500084   -144056.4062
 -17.69750023   -144062.0312
 -17.64999962   -144070.9219
 -17.60250092   -144081.5156
 -17.55500031   -144092.4844
 -17.50749969   -144103.0312
 -17.45999908   -144111.9688
 -17.41250038   -144119.5625
 -17.36499977   -144122.1250
 -17.31749916   -144122.7812
 -17.27000046   -144119.4375
 -17.22249985   -144112.8438
 -17.17499924   -144104.7344
 -17.12750053   -144095.4844
 -17.07999992   -144085.2500
 -17.03249931   -144077.7188
 -16.98500061   -144070.3281
 -16.93750000   -144066.6094
 -16.88999939   -144062.6719
 -16.84250069   -144061.2656
 -16.79500008   -144062.3906
 -16.74749947   -144063.4062
 -16.70000076   -144065.0469
 -16.65250015   -144067.1094
 -16.60499954   -144070.0000
 -16.55750084   -144072.7031
 -16.51000023   -144076.3281
 -16.46249962   -144080.7344
 -16.41500092   -144086.0000
 -16.36750031   -144091.6094
 -16.31999969   -144099.2812
 -16.27249908   -144106.7500
 -16.22500038   -144114.4219
 -16.17749977   -144120.2031
 -16.12999916   -144126.4062
 -16.08250046   -144129.3594
 -16.03499985   -144131.7969
 -15.98750019   -144132.5312
 -15.93999958   NAN
 -15.89249992   NAN
 -15.84500027   NAN
 -15.79749966   NAN
