 -30.00000000   -3853045.250
 -29.95249939   -3853238.000
 -29.90500069   -3853425.750
 -29.85750008   -3853610.500
 -29.80999947   -3853793.500
 -29.76250076   -3853975.500
 -29.71500015   -3854156.250
 -29.66749954   -3854337.750
 -29.62000084   -3854520.750
 -29.57250023   -3854708.000
 -29.52499962   -3854895.250
 -29.47750092   -3855085.500
 -29.43000031   -3855278.000
 -29.38249969   -3855472.750
 -29.33499908   -3855671.000
 -29.28750038   -3855871.250
 -29.23999977   -3856072.500
 -29.19249916   -3856273.000
 -29.14500046   -3856475.250
 -29.09749985   -3856675.500
 -29.04999924   -3856874.750
 -29.00250053   -3857072.250
 -28.95499992   -3857266.750
 -28.90749931   -3857459.750
 -28.86000061   -3857653.250
 -28.81250000   -3857845.750
 -28.76499939   -3858040.250
 -28.71750069   -3858236.250
 -28.67000008   -3858435.500
 -28.62249947   -3858638.250
 -28.57500076   -3858846.000
 -28.52750015   -3859055.000
 -28.47999954   -3859266.500
 -28.43250084   -3859478.250
 -28.38500023   -3859688.250
 -28.33749962   -3859898.000
 -28.29000092   -3860103.750
 -28.24250031   -3860308.000
 -28.19499969   -3860507.750
 -28.14749908   -3860704.500
 -28.10000038   -3860899.000
 -28.05249977   -3861089.500
 -28.00499916   -3861278.750
 -27.95750046   -3861465.250
 -27.90999985   -3861651.500
 -27.86249924   -3861838.500
 -27.81500053   -3862026.750
 -27.76749992   -3862218.500
 -27.71999931   -3862412.500
 -27.67250061   -3862611.250
 -27.62500000   -3862812.750
 -27.57749939   -3863017.250
 -27.53000069   -3863223.250
 -27.48250008   -3863432.250
 -27.43499947   -3863640.750
 -27.38750076   -3863847.250
 -27.34000015   -3864052.000
 -27.29249954   -3864254.000
 -27.24500084   -3864454.000
 -27.19750023   -3864652.000
 -27.14999962   -3864847.500
 -27.10250092   -3865042.750
 -27.05500031   -3865238.250
 -27.00749969   -3865433.750
 -26.95999908   -3865630.250
 -26.91250038   -3865828.250
 -26.86499977   -3866027.750
 -26.81749916   -3866228.500
 -26.77000046   -3866432.500
 -26.72249985   -3866636.000
 -26.67499924   -3866840.750
 -26.62750053   -3867046.250
 -26.57999992   -3867249.750
 -26.53249931   -3867454.000
 -26.48500061   -3867655.750
 -26.43750000   -3867855.750
 -26.38999939   -3868054.750
 -26.34250069   -3868252.000
 -26.29500008   -3868447.750
 -26.24749947   -3868640.000
 -26.20000076   -3868833.250
 -26.15250015   -3869024.250
 -26.10499954   -3869216.500
 -26.05750084   -3869409.250
 -26.01000023   -3869602.250
 -25.96249962   -3869797.750
 -25.91500092   -3869996.500
 -25.86750031   -3870196.250
 -25.81999969   -3870398.250
 -25.77249908   -3870603.250
 -25.72500038   -3870808.250
 -25.67749977   -3871013.250
 -25.62999916   -3871218.500
 -25.58250046   -3871420.750
 -25.53499985   -3871621.250
 -25.48749924   -3871820.250
 -25.44000053   -3872015.000
 -25.39249992   -3872208.500
 -25.34499931   -3872401.750
 -25.29750061   -3872593.000
 -25.25000000   -3872786.250
 -25.20249939   -3872980.750
 -25.15500069   -3873176.250
 -25.10750008   -3873375.250
 -25.05999947   -3873578.250
 -25.01250076   -3873782.000
 -24.96500015   -3873989.500
 -24.91749954   -3874199.500
 -24.87000084   -3874409.500
 -24.82250023   -3874619.000
 -24.77499962   -3874826.750
 -24.72750092   -3875034.000
 -24.68000031   -3875238.250
 -24.63249969   -3875443.000
 -24.58499908   -3875644.000
 -24.53750038   -3875845.250
 -24.48999977   -3876045.000
 -24.44249916   -3876243.250
 -24.39500046   -3876444.500
 -24.34749985   -3876645.750
 -24.29999924   -3876849.250
 -24.25250053   -3877053.500
 -24.20499992   -3877260.000
 -24.15749931   -3877466.250
 -24.11000061   -3877672.500
 -24.06250000   -3877876.000
 -24.01499939   -3878080.250
 -23.96750069   -3878283.500
 -23.92000008   -3878482.500
 -23.87249947   -3878681.000
 -23.82500076   -3878880.500
 -23.77750015   -3879077.250
 -23.72999954   -3879275.750
 -23.68250084   -3879473.500
 -23.63500023   -3879673.000
 -23.58749962   -3879870.000
 -23.54000092   -3880070.250
 -23.49250031   -3880269.250
 -23.44499969   -3880468.250
 -23.39749908   -3880666.750
 -23.35000038   -3880865.000
 -23.30249977   -3881065.000
 -23.25499916   -3881263.250
 -23.20750046   -3881463.000
 -23.15999985   -3881662.000
 -23.11249924   -3881863.000
 -23.06500053   -3882064.250
 -23.01749992   -3882265.500
 -22.96999931   -3882467.750
 -22.92250061   -3882671.500
 -22.87500000   -3882877.500
 -22.82749939   -3883084.500
 -22.78000069   -3883292.750
 -22.73250008   -3883500.750
 -22.68499947   -3883708.750
 -22.63750076   -3883914.750
 -22.59000015   -3884118.250
 -22.54249954   -3884318.750
 -22.49500084   -3884515.500
 -22.44750023   -3884712.500
 -22.39999962   -3884906.500
 -22.35250092   -3885100.250
 -22.30500031   -3885294.000
 -22.25749969   -3885490.250
 -22.20999908   -3885689.500
 -22.16250038   -3885893.500
 -22.11499977   -3886101.250
 -22.06749916   -3886314.250
 -22.02000046   -3886530.250
 -21.97249985   -3886749.750
 -21.92499924   -3886970.500
 -21.87750053   -3887190.250
 -21.82999992   -3887408.250
 -21.78249931   -3887621.250
 -21.73500061   -3887831.750
 -21.68750000   -3888036.000
 -21.63999939   -3888236.250
 -21.59250069   -3888430.250
 -21.54500008   -3888623.750
 -21.49749947   -3888814.500
 -21.45000076   -3889004.750
 -21.40250015   -3889195.000
 -21.35499954   -3889388.000
 -21.30750084   -3889582.250
 -21.26000023   -3889778.000
 -21.21249962   -3889977.250
 -21.16500092   -3890178.250
 -21.11750031   -3890381.000
 -21.06999969   -3890585.500
 -21.02249908   -3890790.750
 -20.97500038   -3890995.250
 -20.92749977   -3891200.750
 -20.87999916   -3891404.750
 -20.83250046   -3891607.500
 -20.78499985   -3891808.250
 -20.73749924   -3892009.250
 -20.69000053   -3892208.250
 -20.64249992   -3892405.250
 -20.59499931   -3892600.500
 -20.54750061   -3892796.500
 -20.50000000   -3892989.750
 -20.45249939   -3893182.000
 -20.40500069   -3893376.250
 -20.35750008   -3893572.250
 -20.30999947   -3893772.000
 -20.26250076   -3893974.000
 -20.21500015   -3894181.250
 -20.16749954   -3894389.750
 -20.12000084   -3894600.500
 -20.07250023   -3894811.000
 -20.02499962   -3895020.500
 -19.97750092   -3895227.500
 -19.93000031   -3895431.750
 -19.88249969   -3895634.000
 -19.83499908   -3895835.250
 -19.78750038   -3896035.750
 -19.73999977   -3896238.500
 -19.69249916   -3896442.000
 -19.64500046   -3896647.000
 -19.59749985   -3896852.500
 -19.54999924   -3897059.000
 -19.50250053   -3897264.750
 -19.45499992   -3897468.500
 -19.40749931   -3897670.500
 -19.36000061   -3897869.750
 -19.31250000   -3898067.000
 -19.26499939   -3898263.250
 -19.21750069   -3898459.500
 -19.17000008   -3898657.500
 -19.12249947   -3898855.250
 -19.07500076   -3899053.000
 -19.02750015   -3899249.750
 -18.97999954   -3899446.000
 -18.93250084   -3899641.000
 -18.88500023   -3899834.250
 -18.83749962   -3900024.500
 -18.79000092   -3900215.500
 -18.74250031   -3900407.500
 -18.69499969   -3900599.000
 -18.64749908   -3900794.250
 -18.60000038   -3900990.250
 -18.55249977   -3901186.500
 -18.50499916   -3901385.000
 -18.45750046   -3901584.000
 -18.40999985   -3901785.250
 -18.36249924   -3901985.750
 -18.31500053   -3902188.500
 -18.26749992   -3902391.000
 -18.21999931   -3902593.000
 -18.17250061   -3902795.750
 -18.12500000   -3902996.250
 -18.07749939   -3903195.000
 -18.03000069   -3903390.750
 -17.98250008   -3903585.000
 -17.93499947   -3903777.000
 -17.88750076   -3903968.000
 -17.84000015   -3904158.750
 -17.79249954   -3904352.000
 -17.74500084   -3904549.000
 -17.69750023   -3904749.250
 -17.64999962   -3904953.000
 -17.60250092   -3905162.000
 -17.55500031   -3905372.250
 -17.50749969   -3905585.000
 -17.45999908   -3905798.000
 -17.41250038   -3906011.750
 -17.36499977   -3906222.500
 -17.31749916   -3906429.500
 -17.27000046   -3906636.500
 -17.22249985   -3906838.250
 -17.17499924   -3907036.000
 -17.12750053   -3907231.500
 -17.07999992   -3907425.250
 -17.03249931   -3907615.750
 -16.98500061   -3907803.500
 -16.93750000   -3907991.500
 -16.88999939   -3908181.250
 -16.84250069   -3908371.250
 -16.79500008   -3908564.750
 -16.74749947   -3908762.000
 -16.70000076   -3908963.250
 -16.65250015   -3909167.500
 -16.60499954   -3909374.000
 -16.55750084   -3909581.000
 -16.51000023   -3909787.250
 -16.46249962   -3909993.750
 -16.41500092   -3910198.750
 -16.36750031   -3910403.250
 -16.31999969   -3910606.000
 -16.27249908   -3910808.250
 -16.22500038   -3911011.000
 -16.17749977   -3911214.750
 -16.12999916   -3911418.500
 -16.08250046   -3911622.000
 -16.03499985   -3911825.750
 -15.98750019   -3912028.750
 -15.93999958   NAN
 -15.89249992   NAN
 -15.84500027   NAN
 -15.79749966   NAN
