 -30.00000000   10340001.00
 -29.95249939   10340530.00
 -29.90500069   10341061.00
 -29.85750008   10341592.00
 -29.80999947   10342124.00
 -29.76250076   10342656.00
 -29.71500015   10343186.00
 -29.66749954   10343715.00
 -29.62000084   10344244.00
 -29.57250023   10344773.00
 -29.52499962   10345304.00
 -29.47750092   10345840.00
 -29.43000031   10346376.00
 -29.38249969   10346918.00
 -29.33499908   10347462.00
 -29.28750038   10348007.00
 -29.23999977   10348551.00
 -29.19249916   10349094.00
 -29.14500046   10349634.00
 -29.09749985   10350168.00
 -29.04999924   10350701.00
 -29.00250053   10351229.00
 -28.95499992   10351757.00
 -28.90749931   10352283.00
 -28.86000061   10352813.00
 -28.81250000   10353344.00
 -28.76499939   10353878.00
 -28.71750069   10354418.00
 -28.67000008   10354962.00
 -28.62249947   10355508.00
 -28.57500076   10356057.00
 -28.52750015   10356610.00
 -28.47999954   10357163.00
 -28.43250084   10357717.00
 -28.38500023   10358269.00
 -28.33749962   10358823.00
 -28.29000092   10359373.00
 -28.24250031   10359921.00
 -28.19499969   10360465.00
 -28.14749908   10361007.00
 -28.10000038   10361542.00
 -28.05249977   10362074.00
 -28.00499916   10362601.00
 -27.95750046   10363123.00
 -27.90999985   10363641.00
 -27.86249924   10364156.00
 -27.81500053   10364671.00
 -27.76749992   10365184.00
 -27.71999931   10365699.00
 -27.67250061   10366214.00
 -27.62500000   10366729.00
 -27.57749939   10367247.00
 -27.53000069   10367765.00
 -27.48250008   10368283.00
 -27.43499947   10368801.00
 -27.38750076   10369316.00
 -27.34000015   10369830.00
 -27.29249954   10370340.00
 -27.24500084   10370846.00
 -27.19750023   10371350.00
 -27.14999962   10371854.00
 -27.10250092   10372356.00
 -27.05500031   10372859.00
 -27.00749969   10373363.00
 -26.95999908   10373871.00
 -26.91250038   10374381.00
 -26.86499977   10374892.00
 -26.81749916   10375406.00
 -26.77000046   10375921.00
 -26.72249985   10376439.00
 -26.67499924   10376956.00
 -26.62750053   10377475.00
 -26.57999992   10377995.00
 -26.53249931   10378516.00
 -26.48500061   10379038.00
 -26.43750000   10379562.00
 -26.38999939   10380090.00
 -26.34250069   10380617.00
 -26.29500008   10381150.00
 -26.24749947   10381682.00
 -26.20000076   10382215.00
 -26.15250015   10382748.00
 -26.10499954   10383278.00
 -26.05750084   10383807.00
 -26.01000023   10384334.00
 -25.96249962   10384863.00
 -25.91500092   10385394.00
 -25.86750031   10385927.00
 -25.81999969   10386465.00
 -25.77249908   10387008.00
 -25.72500038   10387557.00
 -25.67749977   10388106.00
 -25.62999916   10388656.00
 -25.58250046   10389206.00
 -25.53499985   10389750.00
 -25.48749924   10390290.00
 -25.44000053   10390824.00
 -25.39249992   10391355.00
 -25.34499931   10391883.00
 -25.29750061   10392411.00
 -25.25000000   10392940.00
 -25.20249939   10393473.00
 -25.15500069   10394009.00
 -25.10750008   10394546.00
 -25.05999947   10395086.00
 -25.01250076   10395626.00
 -24.96500015   10396162.00
 -24.91749954   10396696.00
 -24.87000084   10397229.00
 -24.82250023   10397760.00
 -24.77499962   10398290.00
 -24.72750092   10398821.00
 -24.68000031   10399357.00
 -24.63249969   10399895.00
 -24.58499908   10400434.00
 -24.53750038   10400975.00
 -24.48999977   10401516.00
 -24.44249916   10402055.00
 -24.39500046   10402587.00
 -24.34749985   10403116.00
 -24.29999924   10403640.00
 -24.25250053   10404159.00
 -24.20499992   10404677.00
 -24.15749931   10405197.00
 -24.11000061   10405720.00
 -24.06250000   10406246.00
 -24.01499939   10406779.00
 -23.96750069   10407314.00
 -23.92000008   10407851.00
 -23.87249947   10408386.00
 -23.82500076   10408923.00
 -23.77750015   10409453.00
 -23.72999954   10409983.00
 -23.68250084   10410510.00
 -23.63500023   10411035.00
 -23.58749962   10411560.00
 -23.54000092   10412085.00
 -23.49250031   10412611.00
 -23.44499969   10413138.00
 -23.39749908   10413665.00
 -23.35000038   10414190.00
 -23.30249977   10414712.00
 -23.25499916   10415231.00
 -23.20750046   10415743.00
 -23.15999985   10416253.00
 -23.11249924   10416761.00
 -23.06500053   10417267.00
 -23.01749992   10417775.00
 -22.96999931   10418284.00
 -22.92250061   10418798.00
 -22.87500000   10419317.00
 -22.82749939   10419838.00
 -22.78000069   10420365.00
 -22.73250008   10420893.00
 -22.68499947   10421424.00
 -22.63750076   10421953.00
 -22.59000015   10422480.00
 -22.54249954   10423008.00
 -22.49500084   10423533.00
 -22.44750023   10424059.00
 -22.39999962   10424584.00
 -22.35250092   10425109.00
 -22.30500031   10425636.00
 -22.25749969   10426164.00
 -22.20999908   10426692.00
 -22.16250038   10427222.00
 -22.11499977   10427752.00
 -22.06749916   10428280.00
 -22.02000046   10428808.00
 -21.97249985   10429332.00
 -21.92499924   10429857.00
 -21.87750053   10430379.00
 -21.82999992   10430903.00
 -21.78249931   10431428.00
 -21.73500061   10431954.00
 -21.68750000   10432482.00
 -21.63999939   10433016.00
 -21.59250069   10433552.00
 -21.54500008   10434089.00
 -21.49749947   10434626.00
 -21.45000076   10435166.00
 -21.40250015   10435703.00
 -21.35499954   10436239.00
 -21.30750084   10436774.00
 -21.26000023   10437310.00
 -21.21249962   10437847.00
 -21.16500092   10438384.00
 -21.11750031   10438925.00
 -21.06999969   10439467.00
 -21.02249908   10440012.00
 -20.97500038   10440559.00
 -20.92749977   10441103.00
 -20.87999916   10441646.00
 -20.83250046   10442188.00
 -20.78499985   10442726.00
 -20.73749924   10443262.00
 -20.69000053   10443793.00
 -20.64249992   10444323.00
 -20.59499931   10444851.00
 -20.54750061   10445378.00
 -20.50000000   10445904.00
 -20.45249939   10446432.00
 -20.40500069   10446960.00
 -20.35750008   10447486.00
 -20.30999947   10448010.00
 -20.26250076   10448535.00
 -20.21500015   10449059.00
 -20.16749954   10449584.00
 -20.12000084   10450112.00
 -20.07250023   10450639.00
 -20.02499962   10451171.00
 -19.97750092   10451704.00
 -19.93000031   10452241.00
 -19.88249969   10452775.00
 -19.83499908   10453310.00
 -19.78750038   10453840.00
 -19.73999977   10454367.00
 -19.69249916   10454890.00
 -19.64500046   10455413.00
 -19.59749985   10455934.00
 -19.54999924   10456456.00
 -19.50250053   10456980.00
 -19.45499992   10457504.00
 -19.40749931   10458031.00
 -19.36000061   10458558.00
 -19.31250000   10459086.00
 -19.26499939   10459610.00
 -19.21750069   10460134.00
 -19.17000008   10460652.00
 -19.12249947   10461168.00
 -19.07500076   10461680.00
 -19.02750015   10462193.00
 -18.97999954   10462705.00
 -18.93250084   10463220.00
 -18.88500023   10463738.00
 -18.83749962   10464261.00
 -18.79000092   10464785.00
 -18.74250031   10465311.00
 -18.69499969   10465837.00
 -18.64749908   10466362.00
 -18.60000038   10466885.00
 -18.55249977   10467406.00
 -18.50499916   10467924.00
 -18.45750046   10468443.00
 -18.40999985   10468961.00
 -18.36249924   10469479.00
 -18.31500053   10470001.00
 -18.26749992   10470525.00
 -18.21999931   10471053.00
 -18.17250061   10471585.00
 -18.12500000   10472120.00
 -18.07749939   10472657.00
 -18.03000069   10473195.00
 -17.98250008   10473731.00
 -17.93499947   10474266.00
 -17.88750076   10474799.00
 -17.84000015   10475331.00
 -17.79249954   10475860.00
 -17.74500084   10476390.00
 -17.69750023   10476920.00
 -17.64999962   10477451.00
 -17.60250092   10477985.00
 -17.55500031   10478520.00
 -17.50749969   10479056.00
 -17.45999908   10479595.00
 -17.41250038   10480135.00
 -17.36499977   10480672.00
 -17.31749916   10481208.00
 -17.27000046   10481739.00
 -17.22249985   10482268.00
 -17.17499924   10482795.00
 -17.12750053   10483319.00
 -17.07999992   10483845.00
 -17.03249931   10484372.00
 -16.98500061   10484900.00
 -16.93750000   10485431.00
 -16.88999939   10485964.00
 -16.84250069   10486495.00
 -16.79500008   10487026.00
 -16.74749947   10487554.00
 -16.70000076   10488077.00
 -16.65250015   10488601.00
 -16.60499954   10489122.00
 -16.55750084   10489641.00
 -16.51000023   10490162.00
 -16.46249962   10490685.00
 -16.41500092   10491212.00
 -16.36750031   10491743.00
 -16.31999969   10492277.00
 -16.27249908   10492813.00
 -16.22500038   10493347.00
 -16.17749977   10493878.00
 -16.12999916   10494408.00
 -16.08250046   10494936.00
 -16.03499985   10495459.00
 -15.98750019   10495980.00
 -15.93999958   NAN
 -15.89249992   NAN
 -15.84500027   NAN
 -15.79749966   NAN
