 -30.00000000   9251774.000
 -29.95249939   9252248.000
 -29.90500069   9252721.000
 -29.85750008   9253195.000
 -29.80999947   9253668.000
 -29.76250076   9254142.000
 -29.71500015   9254615.000
 -29.66749954   9255089.000
 -29.62000084   9255560.000
 -29.57250023   9256034.000
 -29.52499962   9256507.000
 -29.47750092   9256981.000
 -29.43000031   9257455.000
 -29.38249969   9257928.000
 -29.33499908   9258402.000
 -29.28750038   9258876.000
 -29.23999977   9259351.000
 -29.19249916   9259824.000
 -29.14500046   9260297.000
 -29.09749985   9260771.000
 -29.04999924   9261244.000
 -29.00250053   9261718.000
 -28.95499992   9262190.000
 -28.90749931   9262662.000
 -28.86000061   9263135.000
 -28.81250000   9263608.000
 -28.76499939   9264083.000
 -28.71750069   9264557.000
 -28.67000008   9265033.000
 -28.62249947   9265507.000
 -28.57500076   9265981.000
 -28.52750015   9266454.000
 -28.47999954   9266925.000
 -28.43250084   9267398.000
 -28.38500023   9267869.000
 -28.33749962   9268342.000
 -28.29000092   9268813.000
 -28.24250031   9269287.000
 -28.19499969   9269760.000
 -28.14749908   9270234.000
 -28.10000038   9270708.000
 -28.05249977   9271183.000
 -28.00499916   9271657.000
 -27.95750046   9272130.000
 -27.90999985   9272605.000
 -27.86249924   9273079.000
 -27.81500053   9273552.000
 -27.76749992   9274026.000
 -27.71999931   9274499.000
 -27.67250061   9274974.000
 -27.62500000   9275447.000
 -27.57749939   9275923.000
 -27.53000069   9276398.000
 -27.48250008   9276871.000
 -27.43499947   9277345.000
 -27.38750076   9277819.000
 -27.34000015   9278292.000
 -27.29249954   9278765.000
 -27.24500084   9279239.000
 -27.19750023   9279712.000
 -27.14999962   9280184.000
 -27.10250092   9280657.000
 -27.05500031   9281130.000
 -27.00749969   9281604.000
 -26.95999908   9282079.000
 -26.91250038   9282555.000
 -26.86499977   9283029.000
 -26.81749916   9283505.000
 -26.77000046   9283979.000
 -26.72249985   9284454.000
 -26.67499924   9284929.000
 -26.62750053   9285404.000
 -26.57999992   9285877.000
 -26.53249931   9286352.000
 -26.48500061   9286827.000
 -26.43750000   9287301.000
 -26.38999939   9287777.000
 -26.34250069   9288253.000
 -26.29500008   9288729.000
 -26.24749947   9289202.000
 -26.20000076   9289676.000
 -26.15250015   9290150.000
 -26.10499954   9290622.000
 -26.05750084   9291095.000
 -26.01000023   9291567.000
 -25.96249962   9292039.000
 -25.91500092   9292512.000
 -25.86750031   9292986.000
 -25.81999969   9293461.000
 -25.77249908   9293937.000
 -25.72500038   9294411.000
 -25.67749977   9294886.000
 -25.62999916   9295360.000
 -25.58250046   9295833.000
 -25.53499985   9296306.000
 -25.48749924   9296779.000
 -25.44000053   9297251.000
 -25.39249992   9297724.000
 -25.34499931   9298199.000
 -25.29750061   9298673.000
 -25.25000000   9299149.000
 -25.20249939   9299625.000
 -25.15500069   9300102.000
 -25.10750008   9300577.000
 -25.05999947   9301053.000
 -25.01250076   9301526.000
 -24.96500015   9301999.000
 -24.91749954   9302473.000
 -24.87000084   9302947.000
 -24.82250023   9303420.000
 -24.77499962   9303896.000
 -24.72750092   9304372.000
 -24.68000031   9304849.000
 -24.63249969   9305325.000
 -24.58499908   9305801.000
 -24.53750038   9306276.000
 -24.48999977   9306750.000
 -24.44249916   9307224.000
 -24.39500046   9307696.000
 -24.34749985   9308169.000
 -24.29999924   9308644.000
 -24.25250053   9309118.000
 -24.20499992   9309594.000
 -24.15749931   9310071.000
 -24.11000061   9310547.000
 -24.06250000   9311024.000
 -24.01499939   9311499.000
 -23.96750069   9311973.000
 -23.92000008   9312447.000
 -23.87249947   9312920.000
 -23.82500076   9313392.000
 -23.77750015   9313864.000
 -23.72999954   9314338.000
 -23.68250084   9314811.000
 -23.63500023   9315286.000
 -23.58749962   9315761.000
 -23.54000092   9316235.000
 -23.49250031   9316709.000
 -23.44499969   9317182.000
 -23.39749908   9317653.000
 -23.35000038   9318124.000
 -23.30249977   9318594.000
 -23.25499916   9319068.000
 -23.20750046   9319540.000
 -23.15999985   9320015.000
 -23.11249924   9320491.000
 -23.06500053   9320969.000
 -23.01749992   9321446.000
 -22.96999931   9321924.000
 -22.92250061   9322401.000
 -22.87500000   9322876.000
 -22.82749939   9323350.000
 -22.78000069   9323822.000
 -22.73250008   9324292.000
 -22.68499947   9324762.000
 -22.63750076   9325233.000
 -22.59000015   9325705.000
 -22.54249954   9326179.000
 -22.49500084   9326654.000
 -22.44750023   9327130.000
 -22.39999962   9327607.000
 -22.35250092   9328085.000
 -22.30500031   9328563.000
 -22.25749969   9329040.000
 -22.20999908   9329517.000
 -22.16250038   9329992.000
 -22.11499977   9330467.000
 -22.06749916   9330941.000
 -22.02000046   9331414.000
 -21.97249985   9331887.000
 -21.92499924   9332358.000
 -21.87750053   9332829.000
 -21.82999992   9333301.000
 -21.78249931   9333772.000
 -21.73500061   9334244.000
 -21.68750000   9334715.000
 -21.63999939   9335188.000
 -21.59250069   9335663.000
 -21.54500008   9336139.000
 -21.49749947   9336617.000
 -21.45000076   9337096.000
 -21.40250015   9337576.000
 -21.35499954   9338056.000
 -21.30750084   9338535.000
 -21.26000023   9339013.000
 -21.21249962   9339486.000
 -21.16500092   9339960.000
 -21.11750031   9340433.000
 -21.06999969   9340905.000
 -21.02249908   9341376.000
 -20.97500038   9341848.000
 -20.92749977   9342320.000
 -20.87999916   9342793.000
 -20.83250046   9343265.000
 -20.78499985   9343738.000
 -20.73749924   9344209.000
 -20.69000053   9344680.000
 -20.64249992   9345153.000
 -20.59499931   9345625.000
 -20.54750061   9346100.000
 -20.50000000   9346573.000
 -20.45249939   9347049.000
 -20.40500069   9347525.000
 -20.35750008   9348002.000
 -20.30999947   9348480.000
 -20.26250076   9348955.000
 -20.21500015   9349429.000
 -20.16749954   9349902.000
 -20.12000084   9350372.000
 -20.07250023   9350843.000
 -20.02499962   9351313.000
 -19.97750092   9351785.000
 -19.93000031   9352257.000
 -19.88249969   9352732.000
 -19.83499908   9353206.000
 -19.78750038   9353682.000
 -19.73999977   9354158.000
 -19.69249916   9354633.000
 -19.64500046   9355106.000
 -19.59749985   9355578.000
 -19.54999924   9356052.000
 -19.50250053   9356526.000
 -19.45499992   9357002.000
 -19.40749931   9357480.000
 -19.36000061   9357958.000
 -19.31250000   9358440.000
 -19.26499939   9358921.000
 -19.21750069   9359402.000
 -19.17000008   9359878.000
 -19.12249947   9360353.000
 -19.07500076   9360824.000
 -19.02750015   9361292.000
 -18.97999954   9361759.000
 -18.93250084   9362226.000
 -18.88500023   9362695.000
 -18.83749962   9363169.000
 -18.79000092   9363645.000
 -18.74250031   9364125.000
 -18.69499969   9364605.000
 -18.64749908   9365086.000
 -18.60000038   9365565.000
 -18.55249977   9366042.000
 -18.50499916   9366516.000
 -18.45750046   9366987.000
 -18.40999985   9367456.000
 -18.36249924   9367925.000
 -18.31500053   9368395.000
 -18.26749992   9368870.000
 -18.21999931   9369347.000
 -18.17250061   9369827.000
 -18.12500000   9370310.000
 -18.07749939   9370792.000
 -18.03000069   9371274.000
 -17.98250008   9371753.000
 -17.93499947   9372228.000
 -17.88750076   9372701.000
 -17.84000015   9373170.000
 -17.79249954   9373639.000
 -17.74500084   9374111.000
 -17.69750023   9374584.000
 -17.64999962   9375060.000
 -17.60250092   9375540.000
 -17.55500031   9376023.000
 -17.50749969   9376504.000
 -17.45999908   9376984.000
 -17.41250038   9377461.000
 -17.36499977   9377935.000
 -17.31749916   9378406.000
 -17.27000046   9378874.000
 -17.22249985   9379343.000
 -17.17499924   9379813.000
 -17.12750053   9380288.000
 -17.07999992   9380766.000
 -17.03249931   9381247.000
 -16.98500061   9381730.000
 -16.93750000   9382216.000
 -16.88999939   9382698.000
 -16.84250069   9383178.000
 -16.79500008   9383655.000
 -16.74749947   9384127.000
 -16.70000076   9384598.000
 -16.65250015   9385067.000
 -16.60499954   9385537.000
 -16.55750084   9386009.000
 -16.51000023   9386482.000
 -16.46249962   9386960.000
 -16.41500092   9387440.000
 -16.36750031   9387920.000
 -16.31999969   9388402.000
 -16.27249908   9388882.000
 -16.22500038   9389362.000
 -16.17749977   9389839.000
 -16.12999916   9390315.000
 -16.08250046   9390792.000
 -16.03499985   9391268.000
 -15.98750019   9391744.000
 -15.93999958   9392222.000
 -15.89249992   9392702.000
 -15.84500027   9393182.000
 -15.79749966   9393662.000
