 -30.00000000   1618601.500
 -29.95249939   1618685.000
 -29.90500069   1618768.500
 -29.85750008   1618853.000
 -29.80999947   1618937.750
 -29.76250076   1619023.875
 -29.71500015   1619109.375
 -29.66749954   1619195.500
 -29.62000084   1619279.875
 -29.57250023   1619366.500
 -29.52499962   1619453.250
 -29.47750092   1619537.375
 -29.43000031   1619623.125
 -29.38249969   1619706.250
 -29.33499908   1619790.000
 -29.28750038   1619874.500
 -29.23999977   1619957.125
 -29.19249916   1620040.250
 -29.14500046   1620122.875
 -29.09749985   1620206.250
 -29.04999924   1620288.875
 -29.00250053   1620372.125
 -28.95499992   1620456.875
 -28.90749931   1620541.875
 -28.86000061   1620627.000
 -28.81250000   1620713.750
 -28.76499939   1620800.000
 -28.71750069   1620887.500
 -28.67000008   1620975.750
 -28.62249947   1621063.750
 -28.57500076   1621151.000
 -28.52750015   1621239.375
 -28.47999954   1621324.625
 -28.43250084   1621411.875
 -28.38500023   1621496.625
 -28.33749962   1621580.875
 -28.29000092   1621663.125
 -28.24250031   1621745.375
 -28.19499969   1621826.375
 -28.14749908   1621906.125
 -28.10000038   1621986.625
 -28.05249977   1622066.000
 -28.00499916   1622146.125
 -27.95750046   1622226.625
 -27.90999985   1622309.875
 -27.86249924   1622391.500
 -27.81500053   1622474.625
 -27.76749992   1622559.875
 -27.71999931   1622647.375
 -27.67250061   1622733.625
 -27.62500000   1622821.125
 -27.57749939   1622909.625
 -27.53000069   1622998.500
 -27.48250008   1623085.375
 -27.43499947   1623171.125
 -27.38750076   1623256.750
 -27.34000015   1623341.000
 -27.29249954   1623425.125
 -27.24500084   1623507.125
 -27.19750023   1623589.750
 -27.14999962   1623670.375
 -27.10250092   1623750.875
 -27.05500031   1623832.375
 -27.00749969   1623913.250
 -26.95999908   1623995.125
 -26.91250038   1624076.000
 -26.86499977   1624157.875
 -26.81749916   1624240.375
 -26.77000046   1624323.375
 -26.72249985   1624407.125
 -26.67499924   1624491.375
 -26.62750053   1624576.125
 -26.57999992   1624661.125
 -26.53249931   1624746.625
 -26.48500061   1624831.625
 -26.43750000   1624917.875
 -26.38999939   1625002.375
 -26.34250069   1625087.375
 -26.29500008   1625171.375
 -26.24749947   1625255.875
 -26.20000076   1625339.375
 -26.15250015   1625424.125
 -26.10499954   1625506.500
 -26.05750084   1625590.000
 -26.01000023   1625672.625
 -25.96249962   1625756.500
 -25.91500092   1625840.125
 -25.86750031   1625923.750
 -25.81999969   1626006.750
 -25.77249908   1626089.750
 -25.72500038   1626172.750
 -25.67749977   1626256.250
 -25.62999916   1626339.250
 -25.58250046   1626423.125
 -25.53499985   1626506.125
 -25.48749924   1626590.875
 -25.44000053   1626674.000
 -25.39249992   1626758.500
 -25.34499931   1626841.625
 -25.29750061   1626925.000
 -25.25000000   1627009.500
 -25.20249939   1627093.250
 -25.15500069   1627176.625
 -25.10750008   1627260.250
 -25.05999947   1627343.500
 -25.01250076   1627428.125
 -24.96500015   1627510.375
 -24.91749954   1627594.250
 -24.87000084   1627678.000
 -24.82250023   1627759.250
 -24.77499962   1627841.750
 -24.72750092   1627924.125
 -24.68000031   1628004.625
 -24.63249969   1628087.375
 -24.58499908   1628170.375
 -24.53750038   1628253.500
 -24.48999977   1628338.250
 -24.44249916   1628423.125
 -24.39500046   1628508.125
 -24.34749985   1628595.125
 -24.29999924   1628681.625
 -24.25250053   1628767.875
 -24.20499992   1628855.000
 -24.15749931   1628938.250
 -24.11000061   1629022.250
 -24.06250000   1629105.625
 -24.01499939   1629186.875
 -23.96750069   1629268.625
 -23.92000008   1629348.500
 -23.87249947   1629429.250
 -23.82500076   1629507.750
 -23.77750015   1629589.875
 -23.72999954   1629671.500
 -23.68250084   1629754.500
 -23.63500023   1629836.250
 -23.58749962   1629922.250
 -23.54000092   1630008.125
 -23.49250031   1630093.000
 -23.44499969   1630179.375
 -23.39749908   1630264.625
 -23.35000038   1630346.125
 -23.30249977   1630429.000
 -23.25499916   1630509.000
 -23.20750046   1630587.625
 -23.15999985   1630665.500
 -23.11249924   1630742.875
 -23.06500053   1630821.000
 -23.01749992   1630898.250
 -22.96999931   1630978.500
 -22.92250061   1631060.250
 -22.87500000   1631142.375
 -22.82749939   1631228.250
 -22.78000069   1631315.000
 -22.73250008   1631402.125
 -22.68499947   1631489.125
 -22.63750076   1631578.125
 -22.59000015   1631663.625
 -22.54249954   1631749.625
 -22.49500084   1631833.500
 -22.44750023   1631914.750
 -22.39999962   1631994.750
 -22.35250092   1632072.750
 -22.30500031   1632150.000
 -22.25749969   1632224.500
 -22.20999908   1632299.500
 -22.16250038   1632374.875
 -22.11499977   1632450.000
 -22.06749916   1632525.750
 -22.02000046   1632605.125
 -21.97249985   1632684.875
 -21.92499924   1632768.250
 -21.87750053   1632854.125
 -21.82999992   1632939.125
 -21.78249931   1633027.000
 -21.73500061   1633114.000
 -21.68750000   1633201.000
 -21.63999939   1633284.750
 -21.59250069   1633366.500
 -21.54500008   1633447.875
 -21.49749947   1633526.625
 -21.45000076   1633604.250
 -21.40250015   1633681.000
 -21.35499954   1633758.500
 -21.30750084   1633835.000
 -21.26000023   1633912.375
 -21.21249962   1633991.625
 -21.16500092   1634071.125
 -21.11750031   1634152.750
 -21.06999969   1634235.000
 -21.02249908   1634317.625
 -20.97500038   1634398.250
 -20.92749977   1634481.875
 -20.87999916   1634565.000
 -20.83250046   1634645.500
 -20.78499985   1634727.125
 -20.73749924   1634806.000
 -20.69000053   1634885.750
 -20.64249992   1634963.500
 -20.59499931   1635041.375
 -20.54750061   1635117.875
 -20.50000000   1635194.750
 -20.45249939   1635270.375
 -20.40500069   1635347.875
 -20.35750008   1635426.125
 -20.30999947   1635505.250
 -20.26250076   1635586.000
 -20.21500015   1635665.750
 -20.16749954   1635748.500
 -20.12000084   1635829.375
 -20.07250023   1635911.750
 -20.02499962   1635994.000
 -19.97750092   1636074.250
 -19.93000031   1636153.875
 -19.88249969   1636235.500
 -19.83499908   1636315.250
 -19.78750038   1636393.625
 -19.73999977   1636472.625
 -19.69249916   1636552.250
 -19.64500046   1636630.750
 -19.59749985   1636707.750
 -19.54999924   1636785.750
 -19.50250053   1636863.375
 -19.45499992   1636939.125
 -19.40749931   1637015.250
 -19.36000061   1637091.375
 -19.31250000   1637169.500
 -19.26499939   1637246.375
 -19.21750069   1637325.000
 -19.17000008   1637405.500
 -19.12249947   1637485.000
 -19.07500076   1637566.500
 -19.02750015   1637648.875
 -18.97999954   1637732.750
 -18.93250084   1637814.125
 -18.88500023   1637898.000
 -18.83749962   1637980.625
 -18.79000092   1638063.750
 -18.74250031   1638144.500
 -18.69499969   1638225.375
 -18.64749908   1638306.375
 -18.60000038   1638386.375
 -18.55249977   1638464.750
 -18.50499916   1638541.625
 -18.45750046   1638618.000
 -18.40999985   1638695.125
 -18.36249924   1638771.375
 -18.31500053   1638849.000
 -18.26749992   1638925.750
 -18.21999931   1639003.375
 -18.17250061   1639082.375
 -18.12500000   1639162.875
 -18.07749939   1639244.375
 -18.03000069   1639325.125
 -17.98250008   1639407.250
 -17.93499947   1639488.750
 -17.88750076   1639570.375
 -17.84000015   1639651.625
 -17.79249954   1639730.625
 -17.74500084   1639808.250
 -17.69750023   1639886.375
 -17.64999962   1639963.625
 -17.60250092   1640040.125
 -17.55500031   1640115.750
 -17.50749969   1640193.500
 -17.45999908   1640271.750
 -17.41250038   1640352.500
 -17.36499977   1640431.625
 -17.31749916   1640514.250
 -17.27000046   1640598.000
 -17.22249985   1640682.250
 -17.17499924   1640767.000
 -17.12750053   1640852.000
 -17.07999992   1640938.000
 -17.03249931   1641021.000
 -16.98500061   1641103.250
 -16.93750000   1641183.125
 -16.88999939   1641262.875
 -16.84250069   1641340.000
 -16.79500008   1641417.625
 -16.74749947   1641495.625
 -16.70000076   1641573.375
 -16.65250015   1641651.750
 -16.60499954   1641732.875
 -16.55750084   1641814.625
 -16.51000023   1641897.625
 -16.46249962   1641980.750
 -16.41500092   1642063.750
 -16.36750031   1642148.125
 -16.31999969   1642229.125
 -16.27249908   1642310.625
 -16.22500038   1642389.750
 -16.17749977   1642469.500
 -16.12999916   1642546.750
 -16.08250046   1642625.250
 -16.03499985   1642703.250
 -15.98750019   1642780.500
 -15.93999958   1642857.625
 -15.89249992   1642935.250
 -15.84500027   1643013.250
 -15.79749966   1643091.875
