 -30.00000000   -5793630.500
 -29.95249939   -5793925.500
 -29.90500069   -5794218.500
 -29.85750008   -5794512.000
 -29.80999947   -5794804.000
 -29.76250076   -5795096.500
 -29.71500015   -5795390.000
 -29.66749954   -5795680.000
 -29.62000084   -5795971.000
 -29.57250023   -5796264.500
 -29.52499962   -5796556.000
 -29.47750092   -5796850.500
 -29.43000031   -5797142.500
 -29.38249969   -5797438.500
 -29.33499908   -5797733.000
 -29.28750038   -5798026.500
 -29.23999977   -5798322.000
 -29.19249916   -5798617.000
 -29.14500046   -5798912.500
 -29.09749985   -5799206.000
 -29.04999924   -5799500.000
 -29.00250053   -5799793.000
 -28.95499992   -5800085.500
 -28.90749931   -5800377.500
 -28.86000061   -5800669.000
 -28.81250000   -5800959.500
 -28.76499939   -5801252.500
 -28.71750069   -5801542.000
 -28.67000008   -5801831.000
 -28.62249947   -5802122.000
 -28.57500076   -5802412.500
 -28.52750015   -5802703.000
 -28.47999954   -5802993.000
 -28.43250084   -5803285.000
 -28.38500023   -5803577.500
 -28.33749962   -5803870.500
 -28.29000092   -5804164.000
 -28.24250031   -5804457.500
 -28.19499969   -5804751.000
 -28.14749908   -5805046.000
 -28.10000038   -5805340.000
 -28.05249977   -5805635.000
 -28.00499916   -5805929.500
 -27.95750046   -5806223.500
 -27.90999985   -5806517.000
 -27.86249924   -5806810.000
 -27.81500053   -5807103.500
 -27.76749992   -5807396.000
 -27.71999931   -5807688.500
 -27.67250061   -5807980.000
 -27.62500000   -5808271.000
 -27.57749939   -5808562.000
 -27.53000069   -5808851.000
 -27.48250008   -5809142.000
 -27.43499947   -5809430.500
 -27.38750076   -5809720.000
 -27.34000015   -5810012.000
 -27.29249954   -5810304.000
 -27.24500084   -5810596.000
 -27.19750023   -5810890.000
 -27.14999962   -5811181.500
 -27.10250092   -5811477.000
 -27.05500031   -5811771.000
 -27.00749969   -5812064.500
 -26.95999908   -5812357.000
 -26.91250038   -5812651.500
 -26.86499977   -5812945.500
 -26.81749916   -5813237.000
 -26.77000046   -5813531.000
 -26.72249985   -5813823.000
 -26.67499924   -5814115.500
 -26.62750053   -5814408.000
 -26.57999992   -5814699.500
 -26.53249931   -5814990.000
 -26.48500061   -5815281.000
 -26.43750000   -5815571.000
 -26.38999939   -5815860.500
 -26.34250069   -5816150.000
 -26.29500008   -5816440.000
 -26.24749947   -5816728.500
 -26.20000076   -5817018.500
 -26.15250015   -5817310.000
 -26.10499954   -5817599.500
 -26.05750084   -5817892.500
 -26.01000023   -5818182.500
 -25.96249962   -5818475.500
 -25.91500092   -5818767.000
 -25.86750031   -5819060.500
 -25.81999969   -5819352.000
 -25.77249908   -5819646.000
 -25.72500038   -5819939.500
 -25.67749977   -5820232.000
 -25.62999916   -5820524.500
 -25.58250046   -5820817.000
 -25.53499985   -5821109.000
 -25.48749924   -5821400.000
 -25.44000053   -5821690.000
 -25.39249992   -5821979.500
 -25.34499931   -5822268.500
 -25.29750061   -5822554.000
 -25.25000000   -5822841.000
 -25.20249939   -5823127.500
 -25.15500069   -5823414.500
 -25.10750008   -5823701.000
 -25.05999947   -5823990.000
 -25.01250076   -5824280.500
 -24.96500015   -5824573.500
 -24.91749954   -5824866.500
 -24.87000084   -5825160.500
 -24.82250023   -5825456.000
 -24.77499962   -5825751.500
 -24.72750092   -5826047.500
 -24.68000031   -5826342.500
 -24.63249969   -5826636.500
 -24.58499908   -5826929.000
 -24.53750038   -5827221.500
 -24.48999977   -5827510.000
 -24.44249916   -5827798.500
 -24.39500046   -5828085.000
 -24.34749985   -5828369.500
 -24.29999924   -5828654.500
 -24.25250053   -5828939.000
 -24.20499992   -5829220.500
 -24.15749931   -5829505.000
 -24.11000061   -5829789.000
 -24.06250000   -5830076.500
 -24.01499939   -5830363.000
 -23.96750069   -5830652.500
 -23.92000008   -5830944.000
 -23.87249947   -5831237.500
 -23.82500076   -5831531.500
 -23.77750015   -5831828.000
 -23.72999954   -5832124.500
 -23.68250084   -5832417.000
 -23.63500023   -5832711.000
 -23.58749962   -5833006.000
 -23.54000092   -5833298.000
 -23.49250031   -5833587.000
 -23.44499969   -5833876.000
 -23.39749908   -5834164.000
 -23.35000038   -5834451.000
 -23.30249977   -5834736.500
 -23.25499916   -5835022.500
 -23.20750046   -5835308.000
 -23.15999985   -5835594.500
 -23.11249924   -5835880.500
 -23.06500053   -5836168.500
 -23.01749992   -5836457.000
 -22.96999931   -5836746.500
 -22.92250061   -5837036.000
 -22.87500000   -5837326.000
 -22.82749939   -5837618.000
 -22.78000069   -5837908.500
 -22.73250008   -5838200.000
 -22.68499947   -5838488.000
 -22.63750076   -5838778.500
 -22.59000015   -5839066.000
 -22.54249954   -5839355.000
 -22.49500084   -5839643.500
 -22.44750023   -5839931.000
 -22.39999962   -5840220.000
 -22.35250092   -5840509.000
 -22.30500031   -5840797.500
 -22.25749969   -5841088.000
 -22.20999908   -5841379.000
 -22.16250038   -5841667.000
 -22.11499977   -5841959.500
 -22.06749916   -5842247.000
 -22.02000046   -5842534.000
 -21.97249985   -5842822.500
 -21.92499924   -5843109.500
 -21.87750053   -5843395.500
 -21.82999992   -5843681.500
 -21.78249931   -5843966.500
 -21.73500061   -5844252.500
 -21.68750000   -5844539.500
 -21.63999939   -5844825.500
 -21.59250069   -5845112.000
 -21.54500008   -5845399.500
 -21.49749947   -5845687.500
 -21.45000076   -5845976.500
 -21.40250015   -5846266.500
 -21.35499954   -5846557.500
 -21.30750084   -5846849.500
 -21.26000023   -5847140.000
 -21.21249962   -5847432.000
 -21.16500092   -5847723.500
 -21.11750031   -5848013.000
 -21.06999969   -5848300.500
 -21.02249908   -5848586.000
 -20.97500038   -5848871.500
 -20.92749977   -5849155.500
 -20.87999916   -5849438.500
 -20.83250046   -5849721.000
 -20.78499985   -5850003.000
 -20.73749924   -5850286.500
 -20.69000053   -5850569.500
 -20.64249992   -5850855.000
 -20.59499931   -5851142.000
 -20.54750061   -5851429.500
 -20.50000000   -5851719.500
 -20.45249939   -5852011.000
 -20.40500069   -5852303.000
 -20.35750008   -5852596.500
 -20.30999947   -5852890.000
 -20.26250076   -5853185.000
 -20.21500015   -5853479.500
 -20.16749954   -5853774.500
 -20.12000084   -5854066.500
 -20.07250023   -5854357.000
 -20.02499962   -5854645.500
 -19.97750092   -5854930.500
 -19.93000031   -5855215.000
 -19.88249969   -5855496.000
 -19.83499908   -5855776.500
 -19.78750038   -5856057.000
 -19.73999977   -5856337.500
 -19.69249916   -5856621.000
 -19.64500046   -5856907.000
 -19.59749985   -5857195.500
 -19.54999924   -5857485.500
 -19.50250053   -5857776.500
 -19.45499992   -5858070.500
 -19.40749931   -5858365.500
 -19.36000061   -5858660.000
 -19.31250000   -5858954.500
 -19.26499939   -5859246.000
 -19.21750069   -5859537.000
 -19.17000008   -5859826.000
 -19.12249947   -5860113.500
 -19.07500076   -5860401.000
 -19.02750015   -5860687.000
 -18.97999954   -5860972.500
 -18.93250084   -5861258.000
 -18.88500023   -5861544.000
 -18.83749962   -5861829.500
 -18.79000092   -5862117.000
 -18.74250031   -5862405.000
 -18.69499969   -5862694.000
 -18.64749908   -5862982.500
 -18.60000038   -5863272.500
 -18.55249977   -5863561.000
 -18.50499916   -5863850.000
 -18.45750046   -5864137.000
 -18.40999985   -5864423.500
 -18.36249924   -5864710.000
 -18.31500053   -5864995.500
 -18.26749992   -5865280.500
 -18.21999931   -5865565.500
 -18.17250061   -5865852.500
 -18.12500000   -5866137.500
 -18.07749939   -5866426.000
 -18.03000069   -5866716.000
 -17.98250008   -5867005.500
 -17.93499947   -5867296.000
 -17.88750076   -5867587.000
 -17.84000015   -5867877.000
 -17.79249954   -5868167.000
 -17.74500084   -5868457.000
 -17.69750023   -5868746.500
 -17.64999962   -5869035.500
 -17.60250092   -5869327.500
 -17.55500031   -5869617.000
 -17.50749969   -5869908.500
 -17.45999908   -5870198.500
 -17.41250038   -5870489.500
 -17.36499977   -5870779.000
 -17.31749916   -5871067.500
 -17.27000046   -5871355.000
 -17.22249985   -5871642.000
 -17.17499924   -5871927.500
 -17.12750053   -5872213.000
 -17.07999992   -5872498.000
 -17.03249931   -5872783.500
 -16.98500061   -5873070.000
 -16.93750000   -5873359.000
 -16.88999939   -5873648.500
 -16.84250069   -5873941.000
 -16.79500008   -5874233.000
 -16.74749947   -5874526.000
 -16.70000076   -5874817.000
 -16.65250015   -5875109.000
 -16.60499954   -5875396.500
 -16.55750084   -5875682.500
 -16.51000023   -5875968.500
 -16.46249962   -5876250.500
 -16.41500092   -5876533.000
 -16.36750031   -5876815.000
 -16.31999969   -5877095.000
 -16.27249908   -5877377.500
 -16.22500038   -5877661.500
 -16.17749977   -5877946.000
 -16.12999916   -5878234.000
 -16.08250046   -5878523.000
 -16.03499985   -5878814.000
 -15.98750019   -5879107.000
 -15.93999958   -5879399.500
 -15.89249992   -5879694.500
 -15.84500027   -5879988.000
 -15.79749966   -5880280.500
