 -30.00000000   -7694432.000
 -29.95249939   -7694820.500
 -29.90500069   -7695203.000
 -29.85750008   -7695581.500
 -29.80999947   -7695956.000
 -29.76250076   -7696330.000
 -29.71500015   -7696701.000
 -29.66749954   -7697072.000
 -29.62000084   -7697444.500
 -29.57250023   -7697818.000
 -29.52499962   -7698197.000
 -29.47750092   -7698576.000
 -29.43000031   -7698959.500
 -29.38249969   -7699347.500
 -29.33499908   -7699736.500
 -29.28750038   -7700127.500
 -29.23999977   -7700522.000
 -29.19249916   -7700916.500
 -29.14500046   -7701311.000
 -29.09749985   -7701703.000
 -29.04999924   -7702094.000
 -29.00250053   -7702480.500
 -28.95499992   -7702865.500
 -28.90749931   -7703247.500
 -28.86000061   -7703625.000
 -28.81250000   -7704001.000
 -28.76499939   -7704377.500
 -28.71750069   -7704752.000
 -28.67000008   -7705128.000
 -28.62249947   -7705504.000
 -28.57500076   -7705886.000
 -28.52750015   -7706269.000
 -28.47999954   -7706655.500
 -28.43250084   -7707045.000
 -28.38500023   -7707439.000
 -28.33749962   -7707835.500
 -28.29000092   -7708233.500
 -28.24250031   -7708632.500
 -28.19499969   -7709030.000
 -28.14749908   -7709426.500
 -28.10000038   -7709821.500
 -28.05249977   -7710214.500
 -28.00499916   -7710605.500
 -27.95750046   -7710994.500
 -27.90999985   -7711381.000
 -27.86249924   -7711766.500
 -27.81500053   -7712150.000
 -27.76749992   -7712532.000
 -27.71999931   -7712913.500
 -27.67250061   -7713295.500
 -27.62500000   -7713674.500
 -27.57749939   -7714053.500
 -27.53000069   -7714433.000
 -27.48250008   -7714811.500
 -27.43499947   -7715193.500
 -27.38750076   -7715572.500
 -27.34000015   -7715954.500
 -27.29249954   -7716335.000
 -27.24500084   -7716717.000
 -27.19750023   -7717101.500
 -27.14999962   -7717485.500
 -27.10250092   -7717871.500
 -27.05500031   -7718258.500
 -27.00749969   -7718647.000
 -26.95999908   -7719038.000
 -26.91250038   -7719428.500
 -26.86499977   -7719820.000
 -26.81749916   -7720212.000
 -26.77000046   -7720601.500
 -26.72249985   -7720989.000
 -26.67499924   -7721374.000
 -26.62750053   -7721757.000
 -26.57999992   -7722137.500
 -26.53249931   -7722515.500
 -26.48500061   -7722895.500
 -26.43750000   -7723273.000
 -26.38999939   -7723655.000
 -26.34250069   -7724035.500
 -26.29500008   -7724417.500
 -26.24749947   -7724801.000
 -26.20000076   -7725184.500
 -26.15250015   -7725568.000
 -26.10499954   -7725950.500
 -26.05750084   -7726334.500
 -26.01000023   -7726718.500
 -25.96249962   -7727105.000
 -25.91500092   -7727493.500
 -25.86750031   -7727885.000
 -25.81999969   -7728281.500
 -25.77249908   -7728679.500
 -25.72500038   -7729080.000
 -25.67749977   -7729481.000
 -25.62999916   -7729879.000
 -25.58250046   -7730275.000
 -25.53499985   -7730667.000
 -25.48749924   -7731053.500
 -25.44000053   -7731438.000
 -25.39249992   -7731817.000
 -25.34499931   -7732193.500
 -25.29750061   -7732570.500
 -25.25000000   -7732946.500
 -25.20249939   -7733324.000
 -25.15500069   -7733705.000
 -25.10750008   -7734085.500
 -25.05999947   -7734470.500
 -25.01250076   -7734857.000
 -24.96500015   -7735244.500
 -24.91749954   -7735635.000
 -24.87000084   -7736024.500
 -24.82250023   -7736413.500
 -24.77499962   -7736803.000
 -24.72750092   -7737191.000
 -24.68000031   -7737578.500
 -24.63249969   -7737966.000
 -24.58499908   -7738350.000
 -24.53750038   -7738734.500
 -24.48999977   -7739115.000
 -24.44249916   -7739495.500
 -24.39500046   -7739873.500
 -24.34749985   -7740252.500
 -24.29999924   -7740630.000
 -24.25250053   -7741008.000
 -24.20499992   -7741385.500
 -24.15749931   -7741764.000
 -24.11000061   -7742144.500
 -24.06250000   -7742523.500
 -24.01499939   -7742903.000
 -23.96750069   -7743281.500
 -23.92000008   -7743661.000
 -23.87249947   -7744039.500
 -23.82500076   -7744418.500
 -23.77750015   -7744799.000
 -23.72999954   -7745181.000
 -23.68250084   -7745565.000
 -23.63500023   -7745951.500
 -23.58749962   -7746341.500
 -23.54000092   -7746731.000
 -23.49250031   -7747122.000
 -23.44499969   -7747515.500
 -23.39749908   -7747906.000
 -23.35000038   -7748293.000
 -23.30249977   -7748680.000
 -23.25499916   -7749065.000
 -23.20750046   -7749445.500
 -23.15999985   -7749824.500
 -23.11249924   -7750203.500
 -23.06500053   -7750580.000
 -23.01749992   -7750956.500
 -22.96999931   -7751333.500
 -22.92250061   -7751711.000
 -22.87500000   -7752090.000
 -22.82749939   -7752471.000
 -22.78000069   -7752853.000
 -22.73250008   -7753241.000
 -22.68499947   -7753631.000
 -22.63750076   -7754024.500
 -22.59000015   -7754420.500
 -22.54249954   -7754818.500
 -22.49500084   -7755217.500
 -22.44750023   -7755614.500
 -22.39999962   -7756012.000
 -22.35250092   -7756405.000
 -22.30500031   -7756795.500
 -22.25749969   -7757180.500
 -22.20999908   -7757564.000
 -22.16250038   -7757943.000
 -22.11499977   -7758319.000
 -22.06749916   -7758692.000
 -22.02000046   -7759063.500
 -21.97249985   -7759433.500
 -21.92499924   -7759804.500
 -21.87750053   -7760175.500
 -21.82999992   -7760549.000
 -21.78249931   -7760925.000
 -21.73500061   -7761304.500
 -21.68750000   -7761688.000
 -21.63999939   -7762075.000
 -21.59250069   -7762466.000
 -21.54500008   -7762858.000
 -21.49749947   -7763251.000
 -21.45000076   -7763643.000
 -21.40250015   -7764033.500
 -21.35499954   -7764422.500
 -21.30750084   -7764807.500
 -21.26000023   -7765191.500
 -21.21249962   -7765574.500
 -21.16500092   -7765955.000
 -21.11750031   -7766335.500
 -21.06999969   -7766715.000
 -21.02249908   -7767092.500
 -20.97500038   -7767469.500
 -20.92749977   -7767842.500
 -20.87999916   -7768216.500
 -20.83250046   -7768592.000
 -20.78499985   -7768969.500
 -20.73749924   -7769349.000
 -20.69000053   -7769734.000
 -20.64249992   -7770124.500
 -20.59499931   -7770518.500
 -20.54750061   -7770916.000
 -20.50000000   -7771312.500
 -20.45249939   -7771709.500
 -20.40500069   -7772103.500
 -20.35750008   -7772495.000
 -20.30999947   -7772882.000
 -20.26250076   -7773269.000
 -20.21500015   -7773654.000
 -20.16749954   -7774039.000
 -20.12000084   -7774427.000
 -20.07250023   -7774816.000
 -20.02499962   -7775206.000
 -19.97750092   -7775596.000
 -19.93000031   -7775983.000
 -19.88249969   NAN
 -19.83499908   NAN
 -19.78750038   NAN
 -19.73999977   NAN
 -19.69249916   NAN
 -19.64500046   NAN
 -19.59749985   NAN
 -19.54999924   NAN
 -19.50250053   NAN
 -19.45499992   NAN
 -19.40749931   NAN
 -19.36000061   NAN
 -19.31250000   NAN
 -19.26499939   NAN
 -19.21750069   NAN
 -19.17000008   NAN
 -19.12249947   NAN
 -19.07500076   NAN
 -19.02750015   NAN
 -18.97999954   NAN
 -18.93250084   NAN
 -18.88500023   NAN
 -18.83749962   NAN
 -18.79000092   NAN
 -18.74250031   NAN
 -18.69499969   NAN
 -18.64749908   NAN
 -18.60000038   NAN
 -18.55249977   NAN
 -18.50499916   NAN
 -18.45750046   NAN
 -18.40999985   NAN
 -18.36249924   NAN
 -18.31500053   NAN
 -18.26749992   NAN
 -18.21999931   NAN
 -18.17250061   NAN
 -18.12500000   NAN
 -18.07749939   NAN
 -18.03000069   NAN
 -17.98250008   NAN
 -17.93499947   NAN
 -17.88750076   NAN
 -17.84000015   NAN
 -17.79249954   NAN
 -17.74500084   NAN
 -17.69750023   NAN
 -17.64999962   NAN
 -17.60250092   NAN
 -17.55500031   NAN
 -17.50749969   NAN
 -17.45999908   NAN
 -17.41250038   NAN
 -17.36499977   NAN
 -17.31749916   NAN
 -17.27000046   NAN
 -17.22249985   NAN
 -17.17499924   NAN
 -17.12750053   NAN
 -17.07999992   NAN
 -17.03249931   NAN
 -16.98500061   NAN
 -16.93750000   NAN
 -16.88999939   NAN
 -16.84250069   NAN
 -16.79500008   NAN
 -16.74749947   NAN
 -16.70000076   NAN
 -16.65250015   NAN
 -16.60499954   NAN
 -16.55750084   NAN
 -16.51000023   NAN
 -16.46249962   NAN
 -16.41500092   NAN
 -16.36750031   NAN
 -16.31999969   NAN
 -16.27249908   NAN
 -16.22500038   NAN
 -16.17749977   NAN
 -16.12999916   NAN
 -16.08250046   NAN
 -16.03499985   NAN
 -15.98750019   NAN
 -15.93999958   NAN
 -15.89249992   NAN
 -15.84500027   NAN
 -15.79749966   NAN
