 -30.00000000   7904962.500
 -29.95249939   7905371.500
 -29.90500069   7905785.000
 -29.85750008   7906198.500
 -29.80999947   7906614.000
 -29.76250076   7907027.500
 -29.71500015   7907438.000
 -29.66749954   7907846.000
 -29.62000084   7908250.000
 -29.57250023   7908652.000
 -29.52499962   7909051.500
 -29.47750092   7909450.000
 -29.43000031   7909851.000
 -29.38249969   7910255.000
 -29.33499908   7910662.000
 -29.28750038   7911071.500
 -29.23999977   7911484.500
 -29.19249916   7911896.500
 -29.14500046   7912310.500
 -29.09749985   7912721.000
 -29.04999924   7913129.000
 -29.00250053   7913534.000
 -28.95499992   7913938.000
 -28.90749931   7914340.500
 -28.86000061   7914743.000
 -28.81250000   7915147.000
 -28.76499939   7915552.500
 -28.71750069   7915963.500
 -28.67000008   7916374.000
 -28.62249947   7916786.000
 -28.57500076   7917197.000
 -28.52750015   7917606.000
 -28.47999954   7918013.000
 -28.43250084   7918418.000
 -28.38500023   7918823.000
 -28.33749962   7919227.000
 -28.29000092   7919633.000
 -28.24250031   7920042.500
 -28.19499969   7920456.500
 -28.14749908   7920875.000
 -28.10000038   7921296.500
 -28.05249977   7921720.000
 -28.00499916   7922143.500
 -27.95750046   7922562.000
 -27.90999985   7922976.500
 -27.86249924   7923386.000
 -27.81500053   7923788.500
 -27.76749992   7924189.500
 -27.71999931   7924586.500
 -27.67250061   7924987.000
 -27.62500000   7925389.500
 -27.57749939   7925796.500
 -27.53000069   7926209.500
 -27.48250008   7926625.000
 -27.43499947   7927043.500
 -27.38750076   7927461.000
 -27.34000015   7927877.500
 -27.29249954   7928287.500
 -27.24500084   7928693.000
 -27.19750023   7929094.000
 -27.14999962   7929492.000
 -27.10250092   7929889.000
 -27.05500031   7930288.500
 -27.00749969   7930693.000
 -26.95999908   7931102.000
 -26.91250038   7931517.000
 -26.86499977   7931937.000
 -26.81749916   7932358.500
 -26.77000046   7932779.000
 -26.72249985   7933196.000
 -26.67499924   7933609.000
 -26.62750053   7934018.000
 -26.57999992   7934420.500
 -26.53249931   7934821.500
 -26.48500061   7935224.000
 -26.43750000   7935626.500
 -26.38999939   7936032.000
 -26.34250069   7936443.000
 -26.29500008   7936854.500
 -26.24749947   7937269.000
 -26.20000076   7937684.500
 -26.15250015   7938097.500
 -26.10499954   7938508.500
 -26.05750084   7938915.000
 -26.01000023   7939318.000
 -25.96249962   7939719.000
 -25.91500092   7940119.500
 -25.86750031   7940519.000
 -25.81999969   7940919.000
 -25.77249908   7941321.000
 -25.72500038   7941725.000
 -25.67749977   7942127.500
 -25.62999916   7942531.500
 -25.58250046   7942935.000
 -25.53499985   7943334.500
 -25.48749924   7943733.000
 -25.44000053   7944131.000
 -25.39249992   7944527.500
 -25.34499931   7944924.000
 -25.29750061   7945319.000
 -25.25000000   7945715.500
 -25.20249939   7946113.500
 -25.15500069   7946513.500
 -25.10750008   7946917.500
 -25.05999947   7947323.000
 -25.01250076   7947730.000
 -24.96500015   7948140.500
 -24.91749954   7948549.000
 -24.87000084   7948956.000
 -24.82250023   7949361.000
 -24.77499962   7949761.000
 -24.72750092   7950157.000
 -24.68000031   7950551.500
 -24.63249969   7950946.000
 -24.58499908   7951339.500
 -24.53750038   7951735.000
 -24.48999977   7952133.500
 -24.44249916   7952536.000
 -24.39500046   7952940.500
 -24.34749985   7953346.500
 -24.29999924   7953751.500
 -24.25250053   7954154.000
 -24.20499992   7954554.000
 -24.15749931   7954953.000
 -24.11000061   7955348.500
 -24.06250000   7955743.500
 -24.01499939   7956139.000
 -23.96750069   7956539.500
 -23.92000008   7956939.500
 -23.87249947   7957344.500
 -23.82500076   7957751.000
 -23.77750015   7958156.500
 -23.72999954   7958562.000
 -23.68250084   7958966.000
 -23.63500023   7959365.500
 -23.58749962   7959762.500
 -23.54000092   7960158.500
 -23.49250031   7960555.000
 -23.44499969   7960951.500
 -23.39749908   7961352.500
 -23.35000038   7961757.000
 -23.30249977   7962163.500
 -23.25499916   7962573.500
 -23.20750046   7962983.000
 -23.15999985   7963391.000
 -23.11249924   7963795.000
 -23.06500053   7964196.500
 -23.01749992   7964594.000
 -22.96999931   7964989.500
 -22.92250061   7965386.500
 -22.87500000   7965785.500
 -22.82749939   7966190.000
 -22.78000069   7966600.500
 -22.73250008   7967016.500
 -22.68499947   7967436.000
 -22.63750076   7967856.500
 -22.59000015   7968276.000
 -22.54249954   7968693.500
 -22.49500084   7969106.000
 -22.44750023   7969516.500
 -22.39999962   7969927.000
 -22.35250092   7970335.500
 -22.30500031   7970745.000
 -22.25749969   7971156.500
 -22.20999908   7971569.000
 -22.16250038   7971983.500
 -22.11499977   7972397.500
 -22.06749916   7972809.000
 -22.02000046   7973218.500
 -21.97249985   7973625.000
 -21.92499924   7974028.000
 -21.87750053   7974430.000
 -21.82999992   7974832.500
 -21.78249931   7975235.000
 -21.73500061   7975640.500
 -21.68750000   7976047.000
 -21.63999939   7976454.500
 -21.59250069   7976863.000
 -21.54500008   7977271.000
 -21.49749947   7977679.000
 -21.45000076   7978085.000
 -21.40250015   7978490.000
 -21.35499954   7978894.000
 -21.30750084   7979298.000
 -21.26000023   7979703.500
 -21.21249962   7980111.000
 -21.16500092   7980518.000
 -21.11750031   7980925.000
 -21.06999969   7981333.000
 -21.02249908   7981740.000
 -20.97500038   7982144.000
 -20.92749977   7982546.500
 -20.87999916   7982948.000
 -20.83250046   7983350.000
 -20.78499985   7983751.500
 -20.73749924   7984152.500
 -20.69000053   7984557.000
 -20.64249992   7984959.500
 -20.59499931   7985363.500
 -20.54750061   7985767.500
 -20.50000000   7986173.000
 -20.45249939   7986578.000
 -20.40500069   7986985.000
 -20.35750008   7987393.500
 -20.30999947   7987802.000
 -20.26250076   7988216.000
 -20.21500015   7988628.500
 -20.16749954   7989044.500
 -20.12000084   7989461.000
 -20.07250023   7989877.500
 -20.02499962   7990292.500
 -19.97750092   7990706.500
 -19.93000031   7991118.000
 -19.88249969   NAN
 -19.83499908   NAN
 -19.78750038   NAN
 -19.73999977   NAN
 -19.69249916   NAN
 -19.64500046   NAN
 -19.59749985   NAN
 -19.54999924   NAN
 -19.50250053   NAN
 -19.45499992   NAN
 -19.40749931   NAN
 -19.36000061   NAN
 -19.31250000   NAN
 -19.26499939   NAN
 -19.21750069   NAN
 -19.17000008   NAN
 -19.12249947   NAN
 -19.07500076   NAN
 -19.02750015   NAN
 -18.97999954   NAN
 -18.93250084   NAN
 -18.88500023   NAN
 -18.83749962   NAN
 -18.79000092   NAN
 -18.74250031   NAN
 -18.69499969   NAN
 -18.64749908   NAN
 -18.60000038   NAN
 -18.55249977   NAN
 -18.50499916   NAN
 -18.45750046   NAN
 -18.40999985   NAN
 -18.36249924   NAN
 -18.31500053   NAN
 -18.26749992   NAN
 -18.21999931   NAN
 -18.17250061   NAN
 -18.12500000   NAN
 -18.07749939   NAN
 -18.03000069   NAN
 -17.98250008   NAN
 -17.93499947   NAN
 -17.88750076   NAN
 -17.84000015   NAN
 -17.79249954   NAN
 -17.74500084   NAN
 -17.69750023   NAN
 -17.64999962   NAN
 -17.60250092   NAN
 -17.55500031   NAN
 -17.50749969   NAN
 -17.45999908   NAN
 -17.41250038   NAN
 -17.36499977   NAN
 -17.31749916   NAN
 -17.27000046   NAN
 -17.22249985   NAN
 -17.17499924   NAN
 -17.12750053   NAN
 -17.07999992   NAN
 -17.03249931   NAN
 -16.98500061   NAN
 -16.93750000   NAN
 -16.88999939   NAN
 -16.84250069   NAN
 -16.79500008   NAN
 -16.74749947   NAN
 -16.70000076   NAN
 -16.65250015   NAN
 -16.60499954   NAN
 -16.55750084   NAN
 -16.51000023   NAN
 -16.46249962   NAN
 -16.41500092   NAN
 -16.36750031   NAN
 -16.31999969   NAN
 -16.27249908   NAN
 -16.22500038   NAN
 -16.17749977   NAN
 -16.12999916   NAN
 -16.08250046   NAN
 -16.03499985   NAN
 -15.98750019   NAN
 -15.93999958   NAN
 -15.89249992   NAN
 -15.84500027   NAN
 -15.79749966   NAN
