 -30.00000000   297666.8438
 -29.95249939   297688.3438
 -29.90500069   297717.2500
 -29.85750008   297750.4062
 -29.80999947   297786.5938
 -29.76250076   297824.9688
 -29.71500015   297863.5312
 -29.66749954   297900.9688
 -29.62000084   297934.3438
 -29.57250023   297964.9375
 -29.52499962   297992.8438
 -29.47750092   298016.6250
 -29.43000031   298036.0625
 -29.38249969   298052.9375
 -29.33499908   298069.3125
 -29.28750038   298083.4375
 -29.23999977   298099.2500
 -29.19249916   298115.2500
 -29.14500046   298133.1562
 -29.09749985   298153.2188
 -29.04999924   298175.0312
 -29.00250053   298200.2500
 -28.95499992   298226.5938
 -28.90749931   298256.4375
 -28.86000061   298288.7812
 -28.81250000   298322.1562
 -28.76499939   298357.6875
 -28.71750069   298394.1875
 -28.67000008   298432.7500
 -28.62249947   298472.6250
 -28.57500076   298515.2500
 -28.52750015   298559.0625
 -28.47999954   298602.1875
 -28.43250084   298646.2500
 -28.38500023   298691.5625
 -28.33749962   298733.5312
 -28.29000092   298774.8750
 -28.24250031   298811.6562
 -28.19499969   298845.6562
 -28.14749908   298874.7500
 -28.10000038   298897.9375
 -28.05249977   298916.4688
 -28.00499916   298934.0312
 -27.95750046   298946.7188
 -27.90999985   298958.9375
 -27.86249924   298972.6562
 -27.81500053   298988.5938
 -27.76749992   299006.7812
 -27.71999931   299031.2500
 -27.67250061   299060.8438
 -27.62500000   299096.0938
 -27.57749939   299137.1250
 -27.53000069   299182.0625
 -27.48250008   299229.3438
 -27.43499947   299278.5938
 -27.38750076   299326.9062
 -27.34000015   299372.5625
 -27.29249954   299413.5312
 -27.24500084   299448.3125
 -27.19750023   299477.9688
 -27.14999962   299500.3438
 -27.10250092   299516.5938
 -27.05500031   299528.5312
 -27.00749969   299538.0000
 -26.95999908   299545.9375
 -26.91250038   299555.7188
 -26.86499977   299566.0000
 -26.81749916   299580.6562
 -26.77000046   299600.4375
 -26.72249985   299625.2500
 -26.67499924   299655.8438
 -26.62750053   299690.0625
 -26.57999992   299731.0938
 -26.53249931   299774.8125
 -26.48500061   299823.1562
 -26.43750000   299873.9688
 -26.38999939   299924.7812
 -26.34250069   299976.0312
 -26.29500008   300025.0312
 -26.24749947   300071.0000
 -26.20000076   300114.0938
 -26.15250015   300150.8438
 -26.10499954   300182.0312
 -26.05750084   300206.4688
 -26.01000023   300222.0938
 -25.96249962   300233.6875
 -25.91500092   300238.7188
 -25.86750031   300241.9375
 -25.81999969   300242.4062
 -25.77249908   300243.4688
 -25.72500038   300249.2500
 -25.67749977   300258.5312
 -25.62999916   300276.2500
 -25.58250046   300300.4375
 -25.53499985   300332.5000
 -25.48749924   300369.8438
 -25.44000053   300412.7812
 -25.39249992   300458.1250
 -25.34499931   300505.4375
 -25.29750061   300553.0312
 -25.25000000   300597.5000
 -25.20249939   300640.0938
 -25.15500069   300679.9688
 -25.10750008   300713.3438
 -25.05999947   300744.7188
 -25.01250076   300771.4375
 -24.96500015   300793.4375
 -24.91749954   300811.2188
 -24.87000084   300823.9375
 -24.82250023   300834.2812
 -24.77499962   300842.1250
 -24.72750092   300849.1562
 -24.68000031   300855.6250
 -24.63249969   300864.4688
 -24.58499908   300877.3750
 -24.53750038   300894.2500
 -24.48999977   300918.3438
 -24.44249916   300946.5938
 -24.39500046   300980.3438
 -24.34749985   301018.8125
 -24.29999924   301059.1875
 -24.25250053   301100.2188
 -24.20499992   301141.8750
 -24.15749931   301182.3438
 -24.11000061   301221.0312
 -24.06250000   301259.1562
 -24.01499939   301294.5312
 -23.96750069   301327.4375
 -23.92000008   301356.2500
 -23.87249947   301386.4062
 -23.82500076   301413.7812
 -23.77750015   301438.2188
 -23.72999954   301463.0625
 -23.68250084   301485.7188
 -23.63500023   301507.9062
 -23.58749962   301531.9062
 -23.54000092   301554.0938
 -23.49250031   301578.3750
 -23.44499969   301603.9688
 -23.39749908   301632.0312
 -23.35000038   301661.7188
 -23.30249977   301694.5000
 -23.25499916   301728.0312
 -23.20750046   301764.8125
 -23.15999985   301800.9375
 -23.11249924   301837.2188
 -23.06500053   301870.6875
 -23.01749992   301902.0938
 -22.96999931   301929.2188
 -22.92250061   301953.1875
 -22.87500000   301970.3750
 -22.82749939   301984.8750
 -22.78000069   301993.7500
 -22.73250008   302000.7500
 -22.68499947   302006.5000
 -22.63750076   302011.9688
 -22.59000015   302017.3438
 -22.54249954   302024.9062
 -22.49500084   302034.8125
 -22.44750023   302045.0625
 -22.39999962   302057.1875
 -22.35250092   302071.2812
 -22.30500031   302087.5000
 -22.25749969   302104.7188
 -22.20999908   302124.5000
 -22.16250038   302145.4375
 -22.11499977   302169.5000
 -22.06749916   302194.2188
 -22.02000046   302221.0312
 -21.97249985   302248.9062
 -21.92499924   302275.1562
 -21.87750053   302304.5625
 -21.82999992   302331.9375
 -21.78249931   302360.5625
 -21.73500061   302389.0938
 -21.68750000   302415.3438
 -21.63999939   302443.6875
 -21.59250069   302468.0312
 -21.54500008   302491.9062
 -21.49749947   302514.9375
 -21.45000076   302536.1875
 -21.40250015   302555.9688
 -21.35499954   302574.5625
 -21.30750084   302593.9062
 -21.26000023   302614.2500
 -21.21249962   302635.1250
 -21.16500092   302661.7500
 -21.11750031   302688.4688
 -21.06999969   302720.1250
 -21.02249908   302754.1562
 -20.97500038   302790.3750
 -20.92749977   302825.6250
 -20.87999916   302862.4062
 -20.83250046   302896.3438
 -20.78499985   302930.6562
 -20.73749924   302963.2812
 -20.69000053   302992.4688
 -20.64249992   303020.3438
 -20.59499931   303045.8438
 -20.54750061   303068.4688
 -20.50000000   303086.7812
 -20.45249939   303103.3750
 -20.40500069   303116.8125
 -20.35750008   303128.3750
 -20.30999947   303138.7812
 -20.26250076   303148.4375
 -20.21500015   303159.6875
 -20.16749954   303172.8750
 -20.12000084   303189.3438
 -20.07250023   303209.5625
 -20.02499962   303232.2188
 -19.97750092   303260.3438
 -19.93000031   303289.5312
 -19.88249969   NAN
 -19.83499908   NAN
 -19.78750038   NAN
 -19.73999977   NAN
 -19.69249916   NAN
 -19.64500046   NAN
 -19.59749985   NAN
 -19.54999924   NAN
 -19.50250053   NAN
 -19.45499992   NAN
 -19.40749931   NAN
 -19.36000061   NAN
 -19.31250000   NAN
 -19.26499939   NAN
 -19.21750069   NAN
 -19.17000008   NAN
 -19.12249947   NAN
 -19.07500076   NAN
 -19.02750015   NAN
 -18.97999954   NAN
 -18.93250084   NAN
 -18.88500023   NAN
 -18.83749962   NAN
 -18.79000092   NAN
 -18.74250031   NAN
 -18.69499969   NAN
 -18.64749908   NAN
 -18.60000038   NAN
 -18.55249977   NAN
 -18.50499916   NAN
 -18.45750046   NAN
 -18.40999985   NAN
 -18.36249924   NAN
 -18.31500053   NAN
 -18.26749992   NAN
 -18.21999931   NAN
 -18.17250061   NAN
 -18.12500000   NAN
 -18.07749939   NAN
 -18.03000069   NAN
 -17.98250008   NAN
 -17.93499947   NAN
 -17.88750076   NAN
 -17.84000015   NAN
 -17.79249954   NAN
 -17.74500084   NAN
 -17.69750023   NAN
 -17.64999962   NAN
 -17.60250092   NAN
 -17.55500031   NAN
 -17.50749969   NAN
 -17.45999908   NAN
 -17.41250038   NAN
 -17.36499977   NAN
 -17.31749916   NAN
 -17.27000046   NAN
 -17.22249985   NAN
 -17.17499924   NAN
 -17.12750053   NAN
 -17.07999992   NAN
 -17.03249931   NAN
 -16.98500061   NAN
 -16.93750000   NAN
 -16.88999939   NAN
 -16.84250069   NAN
 -16.79500008   NAN
 -16.74749947   NAN
 -16.70000076   NAN
 -16.65250015   NAN
 -16.60499954   NAN
 -16.55750084   NAN
 -16.51000023   NAN
 -16.46249962   NAN
 -16.41500092   NAN
 -16.36750031   NAN
 -16.31999969   NAN
 -16.27249908   NAN
 -16.22500038   NAN
 -16.17749977   NAN
 -16.12999916   NAN
 -16.08250046   NAN
 -16.03499985   NAN
 -15.98750019   NAN
 -15.93999958   NAN
 -15.89249992   NAN
 -15.84500027   NAN
 -15.79749966   NAN
