 -30.00000000   825197.7500
 -29.95249939   825238.4375
 -29.90500069   825277.3750
 -29.85750008   825315.4375
 -29.80999947   825352.3125
 -29.76250076   825388.9375
 -29.71500015   825424.2500
 -29.66749954   825459.5625
 -29.62000084   825493.0000
 -29.57250023   825526.8750
 -29.52499962   825561.2500
 -29.47750092   825596.2500
 -29.43000031   825631.1875
 -29.38249969   825666.6875
 -29.33499908   825700.8125
 -29.28750038   825736.9375
 -29.23999977   825772.5000
 -29.19249916   825809.5000
 -29.14500046   825843.5625
 -29.09749985   825878.6875
 -29.04999924   825915.0000
 -29.00250053   825949.1250
 -28.95499992   825984.6250
 -28.90749931   826020.4375
 -28.86000061   826056.8125
 -28.81250000   826093.0625
 -28.76499939   826128.9375
 -28.71750069   826166.0625
 -28.67000008   826203.8750
 -28.62249947   826243.7500
 -28.57500076   826283.6250
 -28.52750015   826324.6250
 -28.47999954   826365.9375
 -28.43250084   826408.5625
 -28.38500023   826450.8125
 -28.33749962   826494.1875
 -28.29000092   826536.3125
 -28.24250031   826579.1250
 -28.19499969   826619.9375
 -28.14749908   826664.0000
 -28.10000038   826705.6875
 -28.05249977   826749.2500
 -28.00499916   826790.5625
 -27.95750046   826835.7500
 -27.90999985   826878.3750
 -27.86249924   826923.3750
 -27.81500053   826968.5000
 -27.76749992   827014.8125
 -27.71999931   827060.9375
 -27.67250061   827107.9375
 -27.62500000   827154.9375
 -27.57749939   827201.7500
 -27.53000069   827248.5000
 -27.48250008   827294.8750
 -27.43499947   827341.0000
 -27.38750076   827386.5000
 -27.34000015   827430.6875
 -27.29249954   827475.2500
 -27.24500084   827519.5625
 -27.19750023   827563.6875
 -27.14999962   827606.2500
 -27.10250092   827650.8750
 -27.05500031   827693.0000
 -27.00749969   827737.4375
 -26.95999908   827778.2500
 -26.91250038   827822.5000
 -26.86499977   827866.2500
 -26.81749916   827909.0000
 -26.77000046   827950.3125
 -26.72249985   827991.8750
 -26.67499924   828033.8125
 -26.62750053   828074.0000
 -26.57999992   828112.8125
 -26.53249931   828152.8125
 -26.48500061   828190.1250
 -26.43750000   828228.0625
 -26.38999939   828265.8750
 -26.34250069   828302.3750
 -26.29500008   828342.5625
 -26.24749947   828380.2500
 -26.20000076   828418.5000
 -26.15250015   828457.2500
 -26.10499954   828498.0625
 -26.05750084   828538.8125
 -26.01000023   828582.3750
 -25.96249962   828626.3125
 -25.91500092   828670.5000
 -25.86750031   828714.5000
 -25.81999969   828758.7500
 -25.77249908   828803.5625
 -25.72500038   828845.7500
 -25.67749977   828887.3125
 -25.62999916   828928.4375
 -25.58250046   828968.3125
 -25.53499985   829007.5625
 -25.48749924   829042.3125
 -25.44000053   829077.4375
 -25.39249992   829110.3750
 -25.34499931   829143.8125
 -25.29750061   829178.2500
 -25.25000000   829208.6875
 -25.20249939   829242.7500
 -25.15500069   829277.5625
 -25.10750008   829312.2500
 -25.05999947   829349.3750
 -25.01250076   829388.0000
 -24.96500015   829429.9375
 -24.91749954   829471.7500
 -24.87000084   829515.3750
 -24.82250023   829560.3750
 -24.77499962   829607.3750
 -24.72750092   829652.1250
 -24.68000031   829697.8750
 -24.63249969   829742.6875
 -24.58499908   829785.8750
 -24.53750038   829829.7500
 -24.48999977   829871.1250
 -24.44249916   829913.5625
 -24.39500046   829954.0625
 -24.34749985   829994.9375
 -24.29999924   830036.1250
 -24.25250053   830076.3750
 -24.20499992   830120.1250
 -24.15749931   830164.7500
 -24.11000061   830210.1250
 -24.06250000   830257.4375
 -24.01499939   830307.6250
 -23.96750069   830357.3750
 -23.92000008   830409.1875
 -23.87249947   830460.3125
 -23.82500076   830512.1875
 -23.77750015   830564.4375
 -23.72999954   NAN
 -23.68250084   NAN
 -23.63500023   NAN
 -23.58749962   NAN
 -23.54000092   NAN
 -23.49250031   NAN
 -23.44499969   NAN
 -23.39749908   NAN
 -23.35000038   NAN
 -23.30249977   NAN
 -23.25499916   NAN
 -23.20750046   NAN
 -23.15999985   NAN
 -23.11249924   NAN
 -23.06500053   NAN
 -23.01749992   NAN
 -22.96999931   NAN
 -22.92250061   NAN
 -22.87500000   NAN
 -22.82749939   NAN
 -22.78000069   NAN
 -22.73250008   NAN
 -22.68499947   NAN
 -22.63750076   NAN
 -22.59000015   NAN
 -22.54249954   NAN
 -22.49500084   NAN
 -22.44750023   NAN
 -22.39999962   NAN
 -22.35250092   NAN
 -22.30500031   NAN
 -22.25749969   NAN
 -22.20999908   NAN
 -22.16250038   NAN
 -22.11499977   NAN
 -22.06749916   NAN
 -22.02000046   NAN
 -21.97249985   NAN
 -21.92499924   NAN
 -21.87750053   NAN
 -21.82999992   NAN
 -21.78249931   NAN
 -21.73500061   NAN
 -21.68750000   NAN
 -21.63999939   NAN
 -21.59250069   NAN
 -21.54500008   NAN
 -21.49749947   NAN
 -21.45000076   NAN
 -21.40250015   NAN
 -21.35499954   NAN
 -21.30750084   NAN
 -21.26000023   NAN
 -21.21249962   NAN
 -21.16500092   NAN
 -21.11750031   NAN
 -21.06999969   NAN
 -21.02249908   NAN
 -20.97500038   NAN
 -20.92749977   NAN
 -20.87999916   NAN
 -20.83250046   NAN
 -20.78499985   NAN
 -20.73749924   NAN
 -20.69000053   NAN
 -20.64249992   NAN
 -20.59499931   NAN
 -20.54750061   NAN
 -20.50000000   NAN
 -20.45249939   NAN
 -20.40500069   NAN
 -20.35750008   NAN
 -20.30999947   NAN
 -20.26250076   NAN
 -20.21500015   NAN
 -20.16749954   NAN
 -20.12000084   NAN
 -20.07250023   NAN
 -20.02499962   NAN
 -19.97750092   NAN
 -19.93000031   NAN
 -19.88249969   NAN
 -19.83499908   NAN
 -19.78750038   NAN
 -19.73999977   NAN
 -19.69249916   NAN
 -19.64500046   NAN
 -19.59749985   NAN
 -19.54999924   NAN
 -19.50250053   NAN
 -19.45499992   NAN
 -19.40749931   NAN
 -19.36000061   NAN
 -19.31250000   NAN
 -19.26499939   NAN
 -19.21750069   NAN
 -19.17000008   NAN
 -19.12249947   NAN
 -19.07500076   NAN
 -19.02750015   NAN
 -18.97999954   NAN
 -18.93250084   NAN
 -18.88500023   NAN
 -18.83749962   NAN
 -18.79000092   NAN
 -18.74250031   NAN
 -18.69499969   NAN
 -18.64749908   NAN
 -18.60000038   NAN
 -18.55249977   NAN
 -18.50499916   NAN
 -18.45750046   NAN
 -18.40999985   NAN
 -18.36249924   NAN
 -18.31500053   NAN
 -18.26749992   NAN
 -18.21999931   NAN
 -18.17250061   NAN
 -18.12500000   NAN
 -18.07749939   NAN
 -18.03000069   NAN
 -17.98250008   NAN
 -17.93499947   NAN
 -17.88750076   NAN
 -17.84000015   NAN
 -17.79249954   NAN
 -17.74500084   NAN
 -17.69750023   NAN
 -17.64999962   NAN
 -17.60250092   NAN
 -17.55500031   NAN
 -17.50749969   NAN
 -17.45999908   NAN
 -17.41250038   NAN
 -17.36499977   NAN
 -17.31749916   NAN
 -17.27000046   NAN
 -17.22249985   NAN
 -17.17499924   NAN
 -17.12750053   NAN
 -17.07999992   NAN
 -17.03249931   NAN
 -16.98500061   NAN
 -16.93750000   NAN
 -16.88999939   NAN
 -16.84250069   NAN
 -16.79500008   NAN
 -16.74749947   NAN
 -16.70000076   NAN
 -16.65250015   NAN
 -16.60499954   NAN
 -16.55750084   NAN
 -16.51000023   NAN
 -16.46249962   NAN
 -16.41500092   NAN
 -16.36750031   NAN
 -16.31999969   NAN
 -16.27249908   NAN
 -16.22500038   NAN
 -16.17749977   NAN
 -16.12999916   NAN
 -16.08250046   NAN
 -16.03499985   NAN
 -15.98750019   NAN
 -15.93999958   NAN
 -15.89249992   NAN
 -15.84500027   NAN
 -15.79749966   NAN
