 -30.00000000   8483234.000
 -29.95249939   8483670.000
 -29.90500069   8484102.000
 -29.85750008   8484535.000
 -29.80999947   8484970.000
 -29.76250076   8485403.000
 -29.71500015   8485835.000
 -29.66749954   8486269.000
 -29.62000084   8486701.000
 -29.57250023   8487133.000
 -29.52499962   8487566.000
 -29.47750092   8487999.000
 -29.43000031   8488432.000
 -29.38249969   8488864.000
 -29.33499908   8489297.000
 -29.28750038   8489730.000
 -29.23999977   8490162.000
 -29.19249916   8490595.000
 -29.14500046   8491027.000
 -29.09749985   8491460.000
 -29.04999924   8491893.000
 -29.00250053   8492325.000
 -28.95499992   8492758.000
 -28.90749931   8493190.000
 -28.86000061   8493623.000
 -28.81250000   8494055.000
 -28.76499939   8494488.000
 -28.71750069   8494918.000
 -28.67000008   8495349.000
 -28.62249947   8495779.000
 -28.57500076   8496209.000
 -28.52750015   8496637.000
 -28.47999954   8497068.000
 -28.43250084   8497497.000
 -28.38500023   8497929.000
 -28.33749962   8498360.000
 -28.29000092   8498792.000
 -28.24250031   8499223.000
 -28.19499969   8499654.000
 -28.14749908   8500087.000
 -28.10000038   8500521.000
 -28.05249977   8500954.000
 -28.00499916   8501388.000
 -27.95750046   8501820.000
 -27.90999985   8502256.000
 -27.86249924   8502689.000
 -27.81500053   8503123.000
 -27.76749992   8503559.000
 -27.71999931   8503992.000
 -27.67250061   8504426.000
 -27.62500000   8504856.000
 -27.57749939   8505287.000
 -27.53000069   8505717.000
 -27.48250008   8506144.000
 -27.43499947   8506573.000
 -27.38750076   8507001.000
 -27.34000015   8507429.000
 -27.29249954   8507861.000
 -27.24500084   8508292.000
 -27.19750023   8508726.000
 -27.14999962   8509164.000
 -27.10250092   8509601.000
 -27.05500031   8510041.000
 -27.00749969   8510483.000
 -26.95999908   8510925.000
 -26.91250038   8511366.000
 -26.86499977   8511807.000
 -26.81749916   8512246.000
 -26.77000046   8512683.000
 -26.72249985   8513116.000
 -26.67499924   8513545.000
 -26.62750053   8513975.000
 -26.57999992   8514401.000
 -26.53249931   8514829.000
 -26.48500061   8515257.000
 -26.43750000   8515686.000
 -26.38999939   8516118.000
 -26.34250069   8516552.000
 -26.29500008   8516990.000
 -26.24749947   8517429.000
 -26.20000076   8517871.000
 -26.15250015   8518313.000
 -26.10499954   8518755.000
 -26.05750084   8519193.000
 -26.01000023   8519629.000
 -25.96249962   8520062.000
 -25.91500092   8520489.000
 -25.86750031   8520915.000
 -25.81999969   8521339.000
 -25.77249908   8521762.000
 -25.72500038   8522184.000
 -25.67749977   8522604.000
 -25.62999916   8523028.000
 -25.58250046   8523453.000
 -25.53499985   8523877.000
 -25.48749924   8524302.000
 -25.44000053   8524730.000
 -25.39249992   8525156.000
 -25.34499931   8525585.000
 -25.29750061   8526014.000
 -25.25000000   8526445.000
 -25.20249939   8526880.000
 -25.15500069   8527317.000
 -25.10750008   8527756.000
 -25.05999947   8528197.000
 -25.01250076   8528640.000
 -24.96500015   8529081.000
 -24.91749954   8529523.000
 -24.87000084   8529959.000
 -24.82250023   8530396.000
 -24.77499962   8530827.000
 -24.72750092   8531257.000
 -24.68000031   8531680.000
 -24.63249969   8532103.000
 -24.58499908   8532524.000
 -24.53750038   8532941.000
 -24.48999977   8533357.000
 -24.44249916   8533773.000
 -24.39500046   8534190.000
 -24.34749985   8534608.000
 -24.29999924   8535027.000
 -24.25250053   8535450.000
 -24.20499992   8535874.000
 -24.15749931   8536300.000
 -24.11000061   8536730.000
 -24.06250000   8537162.000
 -24.01499939   8537597.000
 -23.96750069   8538033.000
 -23.92000008   8538470.000
 -23.87249947   8538906.000
 -23.82500076   8539341.000
 -23.77750015   8539774.000
 -23.72999954   NAN
 -23.68250084   NAN
 -23.63500023   NAN
 -23.58749962   NAN
 -23.54000092   NAN
 -23.49250031   NAN
 -23.44499969   NAN
 -23.39749908   NAN
 -23.35000038   NAN
 -23.30249977   NAN
 -23.25499916   NAN
 -23.20750046   NAN
 -23.15999985   NAN
 -23.11249924   NAN
 -23.06500053   NAN
 -23.01749992   NAN
 -22.96999931   NAN
 -22.92250061   NAN
 -22.87500000   NAN
 -22.82749939   NAN
 -22.78000069   NAN
 -22.73250008   NAN
 -22.68499947   NAN
 -22.63750076   NAN
 -22.59000015   NAN
 -22.54249954   NAN
 -22.49500084   NAN
 -22.44750023   NAN
 -22.39999962   NAN
 -22.35250092   NAN
 -22.30500031   NAN
 -22.25749969   NAN
 -22.20999908   NAN
 -22.16250038   NAN
 -22.11499977   NAN
 -22.06749916   NAN
 -22.02000046   NAN
 -21.97249985   NAN
 -21.92499924   NAN
 -21.87750053   NAN
 -21.82999992   NAN
 -21.78249931   NAN
 -21.73500061   NAN
 -21.68750000   NAN
 -21.63999939   NAN
 -21.59250069   NAN
 -21.54500008   NAN
 -21.49749947   NAN
 -21.45000076   NAN
 -21.40250015   NAN
 -21.35499954   NAN
 -21.30750084   NAN
 -21.26000023   NAN
 -21.21249962   NAN
 -21.16500092   NAN
 -21.11750031   NAN
 -21.06999969   NAN
 -21.02249908   NAN
 -20.97500038   NAN
 -20.92749977   NAN
 -20.87999916   NAN
 -20.83250046   NAN
 -20.78499985   NAN
 -20.73749924   NAN
 -20.69000053   NAN
 -20.64249992   NAN
 -20.59499931   NAN
 -20.54750061   NAN
 -20.50000000   NAN
 -20.45249939   NAN
 -20.40500069   NAN
 -20.35750008   NAN
 -20.30999947   NAN
 -20.26250076   NAN
 -20.21500015   NAN
 -20.16749954   NAN
 -20.12000084   NAN
 -20.07250023   NAN
 -20.02499962   NAN
 -19.97750092   NAN
 -19.93000031   NAN
 -19.88249969   NAN
 -19.83499908   NAN
 -19.78750038   NAN
 -19.73999977   NAN
 -19.69249916   NAN
 -19.64500046   NAN
 -19.59749985   NAN
 -19.54999924   NAN
 -19.50250053   NAN
 -19.45499992   NAN
 -19.40749931   NAN
 -19.36000061   NAN
 -19.31250000   NAN
 -19.26499939   NAN
 -19.21750069   NAN
 -19.17000008   NAN
 -19.12249947   NAN
 -19.07500076   NAN
 -19.02750015   NAN
 -18.97999954   NAN
 -18.93250084   NAN
 -18.88500023   NAN
 -18.83749962   NAN
 -18.79000092   NAN
 -18.74250031   NAN
 -18.69499969   NAN
 -18.64749908   NAN
 -18.60000038   NAN
 -18.55249977   NAN
 -18.50499916   NAN
 -18.45750046   NAN
 -18.40999985   NAN
 -18.36249924   NAN
 -18.31500053   NAN
 -18.26749992   NAN
 -18.21999931   NAN
 -18.17250061   NAN
 -18.12500000   NAN
 -18.07749939   NAN
 -18.03000069   NAN
 -17.98250008   NAN
 -17.93499947   NAN
 -17.88750076   NAN
 -17.84000015   NAN
 -17.79249954   NAN
 -17.74500084   NAN
 -17.69750023   NAN
 -17.64999962   NAN
 -17.60250092   NAN
 -17.55500031   NAN
 -17.50749969   NAN
 -17.45999908   NAN
 -17.41250038   NAN
 -17.36499977   NAN
 -17.31749916   NAN
 -17.27000046   NAN
 -17.22249985   NAN
 -17.17499924   NAN
 -17.12750053   NAN
 -17.07999992   NAN
 -17.03249931   NAN
 -16.98500061   NAN
 -16.93750000   NAN
 -16.88999939   NAN
 -16.84250069   NAN
 -16.79500008   NAN
 -16.74749947   NAN
 -16.70000076   NAN
 -16.65250015   NAN
 -16.60499954   NAN
 -16.55750084   NAN
 -16.51000023   NAN
 -16.46249962   NAN
 -16.41500092   NAN
 -16.36750031   NAN
 -16.31999969   NAN
 -16.27249908   NAN
 -16.22500038   NAN
 -16.17749977   NAN
 -16.12999916   NAN
 -16.08250046   NAN
 -16.03499985   NAN
 -15.98750019   NAN
 -15.93999958   NAN
 -15.89249992   NAN
 -15.84500027   NAN
 -15.79749966   NAN
