 -30.00000000   7009643.500
 -29.95249939   7010003.500
 -29.90500069   7010362.500
 -29.85750008   7010722.500
 -29.80999947   7011081.000
 -29.76250076   7011441.000
 -29.71500015   7011802.000
 -29.66749954   7012162.500
 -29.62000084   7012522.000
 -29.57250023   7012882.500
 -29.52499962   7013241.000
 -29.47750092   7013599.500
 -29.43000031   7013958.000
 -29.38249969   7014318.000
 -29.33499908   7014676.500
 -29.28750038   7015034.000
 -29.23999977   7015393.500
 -29.19249916   7015752.500
 -29.14500046   7016111.000
 -29.09749985   7016472.000
 -29.04999924   7016830.500
 -29.00250053   7017190.500
 -28.95499992   7017549.000
 -28.90749931   7017907.500
 -28.86000061   7018265.000
 -28.81250000   7018624.500
 -28.76499939   7018981.500
 -28.71750069   7019339.500
 -28.67000008   7019697.500
 -28.62249947   7020054.500
 -28.57500076   7020413.000
 -28.52750015   7020770.000
 -28.47999954   7021129.000
 -28.43250084   7021488.500
 -28.38500023   7021845.500
 -28.33749962   7022204.500
 -28.29000092   7022562.000
 -28.24250031   7022919.000
 -28.19499969   7023275.500
 -28.14749908   7023630.000
 -28.10000038   7023984.000
 -28.05249977   7024337.000
 -28.00499916   7024689.500
 -27.95750046   7025043.500
 -27.90999985   7025396.000
 -27.86249924   7025750.500
 -27.81500053   7026106.000
 -27.76749992   7026461.500
 -27.71999931   7026820.000
 -27.67250061   7027177.000
 -27.62500000   7027533.000
 -27.57749939   7027891.500
 -27.53000069   7028247.500
 -27.48250008   7028604.500
 -27.43499947   7028961.000
 -27.38750076   7029316.500
 -27.34000015   7029672.500
 -27.29249954   7030029.500
 -27.24500084   7030386.500
 -27.19750023   7030745.000
 -27.14999962   7031102.000
 -27.10250092   7031461.000
 -27.05500031   7031819.000
 -27.00749969   7032178.000
 -26.95999908   7032536.500
 -26.91250038   7032896.500
 -26.86499977   7033257.000
 -26.81749916   7033619.500
 -26.77000046   7033980.500
 -26.72249985   7034342.500
 -26.67499924   7034705.000
 -26.62750053   7035066.500
 -26.57999992   7035428.000
 -26.53249931   7035788.500
 -26.48500061   7036148.500
 -26.43750000   7036508.500
 -26.38999939   7036868.000
 -26.34250069   7037228.500
 -26.29500008   7037588.500
 -26.24749947   7037951.000
 -26.20000076   7038312.500
 -26.15250015   7038673.000
 -26.10499954   7039035.500
 -26.05750084   7039395.500
 -26.01000023   7039755.500
 -25.96249962   7040113.000
 -25.91500092   7040470.000
 -25.86750031   7040826.000
 -25.81999969   7041179.500
 -25.77249908   7041535.000
 -25.72500038   7041889.500
 -25.67749977   7042245.500
 -25.62999916   7042601.000
 -25.58250046   7042959.000
 -25.53499985   7043316.500
 -25.48749924   7043676.000
 -25.44000053   7044036.000
 -25.39249992   7044395.000
 -25.34499931   7044754.500
 -25.29750061   7045112.000
 -25.25000000   7045469.500
 -25.20249939   7045827.500
 -25.15500069   7046184.500
 -25.10750008   7046540.000
 -25.05999947   7046896.000
 -25.01250076   7047252.000
 -24.96500015   7047608.500
 -24.91749954   7047964.000
 -24.87000084   7048318.500
 -24.82250023   7048674.000
 -24.77499962   7049028.000
 -24.72750092   7049381.000
 -24.68000031   7049734.000
 -24.63249969   7050087.500
 -24.58499908   7050439.000
 -24.53750038   7050787.500
 -24.48999977   7051139.500
 -24.44249916   7051488.000
 -24.39500046   7051837.000
 -24.34749985   7052186.500
 -24.29999924   7052536.500
 -24.25250053   7052887.500
 -24.20499992   7053239.000
 -24.15749931   7053592.500
 -24.11000061   7053947.000
 -24.06250000   7054305.000
 -24.01499939   7054659.500
 -23.96750069   7055018.000
 -23.92000008   7055375.500
 -23.87249947   7055731.000
 -23.82500076   7056086.000
 -23.77750015   7056440.500
 -23.72999954   NAN
 -23.68250084   NAN
 -23.63500023   NAN
 -23.58749962   NAN
 -23.54000092   NAN
 -23.49250031   NAN
 -23.44499969   NAN
 -23.39749908   NAN
 -23.35000038   NAN
 -23.30249977   NAN
 -23.25499916   NAN
 -23.20750046   NAN
 -23.15999985   NAN
 -23.11249924   NAN
 -23.06500053   NAN
 -23.01749992   NAN
 -22.96999931   NAN
 -22.92250061   NAN
 -22.87500000   NAN
 -22.82749939   NAN
 -22.78000069   NAN
 -22.73250008   NAN
 -22.68499947   NAN
 -22.63750076   NAN
 -22.59000015   NAN
 -22.54249954   NAN
 -22.49500084   NAN
 -22.44750023   NAN
 -22.39999962   NAN
 -22.35250092   NAN
 -22.30500031   NAN
 -22.25749969   NAN
 -22.20999908   NAN
 -22.16250038   NAN
 -22.11499977   NAN
 -22.06749916   NAN
 -22.02000046   NAN
 -21.97249985   NAN
 -21.92499924   NAN
 -21.87750053   NAN
 -21.82999992   NAN
 -21.78249931   NAN
 -21.73500061   NAN
 -21.68750000   NAN
 -21.63999939   NAN
 -21.59250069   NAN
 -21.54500008   NAN
 -21.49749947   NAN
 -21.45000076   NAN
 -21.40250015   NAN
 -21.35499954   NAN
 -21.30750084   NAN
 -21.26000023   NAN
 -21.21249962   NAN
 -21.16500092   NAN
 -21.11750031   NAN
 -21.06999969   NAN
 -21.02249908   NAN
 -20.97500038   NAN
 -20.92749977   NAN
 -20.87999916   NAN
 -20.83250046   NAN
 -20.78499985   NAN
 -20.73749924   NAN
 -20.69000053   NAN
 -20.64249992   NAN
 -20.59499931   NAN
 -20.54750061   NAN
 -20.50000000   NAN
 -20.45249939   NAN
 -20.40500069   NAN
 -20.35750008   NAN
 -20.30999947   NAN
 -20.26250076   NAN
 -20.21500015   NAN
 -20.16749954   NAN
 -20.12000084   NAN
 -20.07250023   NAN
 -20.02499962   NAN
 -19.97750092   NAN
 -19.93000031   NAN
 -19.88249969   NAN
 -19.83499908   NAN
 -19.78750038   NAN
 -19.73999977   NAN
 -19.69249916   NAN
 -19.64500046   NAN
 -19.59749985   NAN
 -19.54999924   NAN
 -19.50250053   NAN
 -19.45499992   NAN
 -19.40749931   NAN
 -19.36000061   NAN
 -19.31250000   NAN
 -19.26499939   NAN
 -19.21750069   NAN
 -19.17000008   NAN
 -19.12249947   NAN
 -19.07500076   NAN
 -19.02750015   NAN
 -18.97999954   NAN
 -18.93250084   NAN
 -18.88500023   NAN
 -18.83749962   NAN
 -18.79000092   NAN
 -18.74250031   NAN
 -18.69499969   NAN
 -18.64749908   NAN
 -18.60000038   NAN
 -18.55249977   NAN
 -18.50499916   NAN
 -18.45750046   NAN
 -18.40999985   NAN
 -18.36249924   NAN
 -18.31500053   NAN
 -18.26749992   NAN
 -18.21999931   NAN
 -18.17250061   NAN
 -18.12500000   NAN
 -18.07749939   NAN
 -18.03000069   NAN
 -17.98250008   NAN
 -17.93499947   NAN
 -17.88750076   NAN
 -17.84000015   NAN
 -17.79249954   NAN
 -17.74500084   NAN
 -17.69750023   NAN
 -17.64999962   NAN
 -17.60250092   NAN
 -17.55500031   NAN
 -17.50749969   NAN
 -17.45999908   NAN
 -17.41250038   NAN
 -17.36499977   NAN
 -17.31749916   NAN
 -17.27000046   NAN
 -17.22249985   NAN
 -17.17499924   NAN
 -17.12750053   NAN
 -17.07999992   NAN
 -17.03249931   NAN
 -16.98500061   NAN
 -16.93750000   NAN
 -16.88999939   NAN
 -16.84250069   NAN
 -16.79500008   NAN
 -16.74749947   NAN
 -16.70000076   NAN
 -16.65250015   NAN
 -16.60499954   NAN
 -16.55750084   NAN
 -16.51000023   NAN
 -16.46249962   NAN
 -16.41500092   NAN
 -16.36750031   NAN
 -16.31999969   NAN
 -16.27249908   NAN
 -16.22500038   NAN
 -16.17749977   NAN
 -16.12999916   NAN
 -16.08250046   NAN
 -16.03499985   NAN
 -15.98750019   NAN
 -15.93999958   NAN
 -15.89249992   NAN
 -15.84500027   NAN
 -15.79749966   NAN
