 -30.00000000   2242829.000
 -29.95249939   2242942.250
 -29.90500069   2243057.250
 -29.85750008   2243171.250
 -29.80999947   2243286.750
 -29.76250076   2243402.250
 -29.71500015   2243518.250
 -29.66749954   2243636.750
 -29.62000084   2243752.750
 -29.57250023   2243871.250
 -29.52499962   2243989.250
 -29.47750092   2244107.500
 -29.43000031   2244227.250
 -29.38249969   2244348.250
 -29.33499908   2244470.750
 -29.28750038   2244593.000
 -29.23999977   2244718.750
 -29.19249916   2244842.250
 -29.14500046   2244967.750
 -29.09749985   2245090.000
 -29.04999924   2245209.500
 -29.00250053   2245327.000
 -28.95499992   2245441.250
 -28.90749931   2245555.500
 -28.86000061   2245670.500
 -28.81250000   2245787.250
 -28.76499939   2245909.500
 -28.71750069   2246034.250
 -28.67000008   2246163.500
 -28.62249947   2246293.250
 -28.57500076   2246424.000
 -28.52750015   2246551.500
 -28.47999954   2246677.500
 -28.43250084   2246797.250
 -28.38500023   2246914.250
 -28.33749962   2247030.500
 -28.29000092   2247147.500
 -28.24250031   2247265.750
 -28.19499969   2247388.500
 -28.14749908   2247514.500
 -28.10000038   2247643.000
 -28.05249977   2247773.250
 -28.00499916   2247903.000
 -27.95750046   2248033.000
 -27.90999985   2248159.000
 -27.86249924   2248280.750
 -27.81500053   2248400.750
 -27.76749992   2248517.750
 -27.71999931   2248634.750
 -27.67250061   2248754.000
 -27.62500000   2248875.500
 -27.57749939   2249000.000
 -27.53000069   2249126.500
 -27.48250008   2249254.250
 -27.43499947   2249381.250
 -27.38750076   2249507.750
 -27.34000015   2249633.250
 -27.29249954   2249754.000
 -27.24500084   2249872.750
 -27.19750023   2249990.750
 -27.14999962   2250108.500
 -27.10250092   2250224.500
 -27.05500031   2250342.250
 -27.00749969   2250459.750
 -26.95999908   2250580.250
 -26.91250038   2250702.500
 -26.86499977   2250824.500
 -26.81749916   2250949.250
 -26.77000046   2251075.750
 -26.72249985   2251199.000
 -26.67499924   2251322.250
 -26.62750053   2251443.250
 -26.57999992   2251561.500
 -26.53249931   2251678.500
 -26.48500061   2251792.000
 -26.43750000   2251906.000
 -26.38999939   2252019.500
 -26.34250069   2252134.500
 -26.29500008   2252252.250
 -26.24749947   2252373.000
 -26.20000076   2252496.500
 -26.15250015   2252621.000
 -26.10499954   2252747.000
 -26.05750084   2252868.750
 -26.01000023   2252987.750
 -25.96249962   2253102.250
 -25.91500092   2253211.750
 -25.86750031   2253319.000
 -25.81999969   2253425.500
 -25.77249908   2253533.750
 -25.72500038   2253646.750
 -25.67749977   2253765.750
 -25.62999916   2253891.000
 -25.58250046   2254019.250
 -25.53499985   2254150.500
 -25.48749924   2254279.500
 -25.44000053   2254405.250
 -25.39249992   2254526.000
 -25.34499931   2254642.250
 -25.29750061   2254755.000
 -25.25000000   2254866.500
 -25.20249939   2254980.500
 -25.15500069   2255097.500
 -25.10750008   2255220.500
 -25.05999947   2255348.750
 -25.01250076   2255480.750
 -24.96500015   2255611.500
 -24.91749954   2255742.000
 -24.87000084   2255865.750
 -24.82250023   2255985.250
 -24.77499962   2256100.250
 -24.72750092   2256210.000
 -24.68000031   2256318.750
 -24.63249969   2256429.500
 -24.58499908   NAN
 -24.53750038   NAN
 -24.48999977   NAN
 -24.44249916   NAN
 -24.39500046   NAN
 -24.34749985   NAN
 -24.29999924   NAN
 -24.25250053   NAN
 -24.20499992   NAN
 -24.15749931   NAN
 -24.11000061   NAN
 -24.06250000   NAN
 -24.01499939   NAN
 -23.96750069   NAN
 -23.92000008   NAN
 -23.87249947   NAN
 -23.82500076   NAN
 -23.77750015   NAN
 -23.72999954   NAN
 -23.68250084   NAN
 -23.63500023   NAN
 -23.58749962   NAN
 -23.54000092   NAN
 -23.49250031   NAN
 -23.44499969   NAN
 -23.39749908   NAN
 -23.35000038   NAN
 -23.30249977   NAN
 -23.25499916   NAN
 -23.20750046   NAN
 -23.15999985   NAN
 -23.11249924   NAN
 -23.06500053   NAN
 -23.01749992   NAN
 -22.96999931   NAN
 -22.92250061   NAN
 -22.87500000   NAN
 -22.82749939   NAN
 -22.78000069   NAN
 -22.73250008   NAN
 -22.68499947   NAN
 -22.63750076   NAN
 -22.59000015   NAN
 -22.54249954   NAN
 -22.49500084   NAN
 -22.44750023   NAN
 -22.39999962   NAN
 -22.35250092   NAN
 -22.30500031   NAN
 -22.25749969   NAN
 -22.20999908   NAN
 -22.16250038   NAN
 -22.11499977   NAN
 -22.06749916   NAN
 -22.02000046   NAN
 -21.97249985   NAN
 -21.92499924   NAN
 -21.87750053   NAN
 -21.82999992   NAN
 -21.78249931   NAN
 -21.73500061   NAN
 -21.68750000   NAN
 -21.63999939   NAN
 -21.59250069   NAN
 -21.54500008   NAN
 -21.49749947   NAN
 -21.45000076   NAN
 -21.40250015   NAN
 -21.35499954   NAN
 -21.30750084   NAN
 -21.26000023   NAN
 -21.21249962   NAN
 -21.16500092   NAN
 -21.11750031   NAN
 -21.06999969   NAN
 -21.02249908   NAN
 -20.97500038   NAN
 -20.92749977   NAN
 -20.87999916   NAN
 -20.83250046   NAN
 -20.78499985   NAN
 -20.73749924   NAN
 -20.69000053   NAN
 -20.64249992   NAN
 -20.59499931   NAN
 -20.54750061   NAN
 -20.50000000   NAN
 -20.45249939   NAN
 -20.40500069   NAN
 -20.35750008   NAN
 -20.30999947   NAN
 -20.26250076   NAN
 -20.21500015   NAN
 -20.16749954   NAN
 -20.12000084   NAN
 -20.07250023   NAN
 -20.02499962   NAN
 -19.97750092   NAN
 -19.93000031   NAN
 -19.88249969   NAN
 -19.83499908   NAN
 -19.78750038   NAN
 -19.73999977   NAN
 -19.69249916   NAN
 -19.64500046   NAN
 -19.59749985   NAN
 -19.54999924   NAN
 -19.50250053   NAN
 -19.45499992   NAN
 -19.40749931   NAN
 -19.36000061   NAN
 -19.31250000   NAN
 -19.26499939   NAN
 -19.21750069   NAN
 -19.17000008   NAN
 -19.12249947   NAN
 -19.07500076   NAN
 -19.02750015   NAN
 -18.97999954   NAN
 -18.93250084   NAN
 -18.88500023   NAN
 -18.83749962   NAN
 -18.79000092   NAN
 -18.74250031   NAN
 -18.69499969   NAN
 -18.64749908   NAN
 -18.60000038   NAN
 -18.55249977   NAN
 -18.50499916   NAN
 -18.45750046   NAN
 -18.40999985   NAN
 -18.36249924   NAN
 -18.31500053   NAN
 -18.26749992   NAN
 -18.21999931   NAN
 -18.17250061   NAN
 -18.12500000   NAN
 -18.07749939   NAN
 -18.03000069   NAN
 -17.98250008   NAN
 -17.93499947   NAN
 -17.88750076   NAN
 -17.84000015   NAN
 -17.79249954   NAN
 -17.74500084   NAN
 -17.69750023   NAN
 -17.64999962   NAN
 -17.60250092   NAN
 -17.55500031   NAN
 -17.50749969   NAN
 -17.45999908   NAN
 -17.41250038   NAN
 -17.36499977   NAN
 -17.31749916   NAN
 -17.27000046   NAN
 -17.22249985   NAN
 -17.17499924   NAN
 -17.12750053   NAN
 -17.07999992   NAN
 -17.03249931   NAN
 -16.98500061   NAN
 -16.93750000   NAN
 -16.88999939   NAN
 -16.84250069   NAN
 -16.79500008   NAN
 -16.74749947   NAN
 -16.70000076   NAN
 -16.65250015   NAN
 -16.60499954   NAN
 -16.55750084   NAN
 -16.51000023   NAN
 -16.46249962   NAN
 -16.41500092   NAN
 -16.36750031   NAN
 -16.31999969   NAN
 -16.27249908   NAN
 -16.22500038   NAN
 -16.17749977   NAN
 -16.12999916   NAN
 -16.08250046   NAN
 -16.03499985   NAN
 -15.98750019   NAN
 -15.93999958   NAN
 -15.89249992   NAN
 -15.84500027   NAN
 -15.79749966   NAN
