 -30.00000000   -8888888.000
 -29.95249939   -8889340.000
 -29.90500069   -8889794.000
 -29.85750008   -8890246.000
 -29.80999947   -8890700.000
 -29.76250076   -8891152.000
 -29.71500015   -8891604.000
 -29.66749954   -8892057.000
 -29.62000084   -8892507.000
 -29.57250023   -8892959.000
 -29.52499962   -8893412.000
 -29.47750092   -8893863.000
 -29.43000031   -8894315.000
 -29.38249969   -8894769.000
 -29.33499908   -8895225.000
 -29.28750038   -8895680.000
 -29.23999977   -8896135.000
 -29.19249916   -8896591.000
 -29.14500046   -8897048.000
 -29.09749985   -8897502.000
 -29.04999924   -8897957.000
 -29.00250053   -8898408.000
 -28.95499992   -8898860.000
 -28.90749931   -8899311.000
 -28.86000061   -8899762.000
 -28.81250000   -8900212.000
 -28.76499939   -8900664.000
 -28.71750069   -8901118.000
 -28.67000008   -8901569.000
 -28.62249947   -8902021.000
 -28.57500076   -8902474.000
 -28.52750015   -8902927.000
 -28.47999954   -8903379.000
 -28.43250084   -8903834.000
 -28.38500023   -8904287.000
 -28.33749962   -8904740.000
 -28.29000092   -8905195.000
 -28.24250031   -8905651.000
 -28.19499969   -8906107.000
 -28.14749908   -8906564.000
 -28.10000038   -8907019.000
 -28.05249977   -8907473.000
 -28.00499916   -8907925.000
 -27.95750046   -8908375.000
 -27.90999985   -8908823.000
 -27.86249924   -8909272.000
 -27.81500053   -8909717.000
 -27.76749992   -8910163.000
 -27.71999931   -8910610.000
 -27.67250061   -8911058.000
 -27.62500000   -8911507.000
 -27.57749939   -8911958.000
 -27.53000069   -8912411.000
 -27.48250008   -8912865.000
 -27.43499947   -8913318.000
 -27.38750076   -8913771.000
 -27.34000015   -8914224.000
 -27.29249954   -8914675.000
 -27.24500084   -8915127.000
 -27.19750023   -8915577.000
 -27.14999962   -8916026.000
 -27.10250092   -8916475.000
 -27.05500031   -8916924.000
 -27.00749969   -8917372.000
 -26.95999908   -8917821.000
 -26.91250038   -8918269.000
 -26.86499977   -8918719.000
 -26.81749916   -8919170.000
 -26.77000046   -8919622.000
 -26.72249985   -8920073.000
 -26.67499924   -8920525.000
 -26.62750053   -8920978.000
 -26.57999992   -8921431.000
 -26.53249931   -8921885.000
 -26.48500061   -8922337.000
 -26.43750000   -8922789.000
 -26.38999939   -8923238.000
 -26.34250069   -8923683.000
 -26.29500008   -8924130.000
 -26.24749947   -8924575.000
 -26.20000076   -8925018.000
 -26.15250015   -8925464.000
 -26.10499954   -8925911.000
 -26.05750084   -8926360.000
 -26.01000023   -8926811.000
 -25.96249962   -8927264.000
 -25.91500092   -8927719.000
 -25.86750031   -8928173.000
 -25.81999969   -8928629.000
 -25.77249908   -8929083.000
 -25.72500038   -8929539.000
 -25.67749977   -8929992.000
 -25.62999916   -8930443.000
 -25.58250046   -8930892.000
 -25.53499985   -8931340.000
 -25.48749924   -8931787.000
 -25.44000053   -8932231.000
 -25.39249992   -8932675.000
 -25.34499931   -8933117.000
 -25.29750061   -8933559.000
 -25.25000000   -8934002.000
 -25.20249939   -8934444.000
 -25.15500069   -8934892.000
 -25.10750008   -8935341.000
 -25.05999947   -8935793.000
 -25.01250076   -8936247.000
 -24.96500015   -8936705.000
 -24.91749954   -8937165.000
 -24.87000084   -8937623.000
 -24.82250023   -8938080.000
 -24.77499962   -8938535.000
 -24.72750092   -8938987.000
 -24.68000031   -8939437.000
 -24.63249969   -8939882.000
 -24.58499908   NAN
 -24.53750038   NAN
 -24.48999977   NAN
 -24.44249916   NAN
 -24.39500046   NAN
 -24.34749985   NAN
 -24.29999924   NAN
 -24.25250053   NAN
 -24.20499992   NAN
 -24.15749931   NAN
 -24.11000061   NAN
 -24.06250000   NAN
 -24.01499939   NAN
 -23.96750069   NAN
 -23.92000008   NAN
 -23.87249947   NAN
 -23.82500076   NAN
 -23.77750015   NAN
 -23.72999954   NAN
 -23.68250084   NAN
 -23.63500023   NAN
 -23.58749962   NAN
 -23.54000092   NAN
 -23.49250031   NAN
 -23.44499969   NAN
 -23.39749908   NAN
 -23.35000038   NAN
 -23.30249977   NAN
 -23.25499916   NAN
 -23.20750046   NAN
 -23.15999985   NAN
 -23.11249924   NAN
 -23.06500053   NAN
 -23.01749992   NAN
 -22.96999931   NAN
 -22.92250061   NAN
 -22.87500000   NAN
 -22.82749939   NAN
 -22.78000069   NAN
 -22.73250008   NAN
 -22.68499947   NAN
 -22.63750076   NAN
 -22.59000015   NAN
 -22.54249954   NAN
 -22.49500084   NAN
 -22.44750023   NAN
 -22.39999962   NAN
 -22.35250092   NAN
 -22.30500031   NAN
 -22.25749969   NAN
 -22.20999908   NAN
 -22.16250038   NAN
 -22.11499977   NAN
 -22.06749916   NAN
 -22.02000046   NAN
 -21.97249985   NAN
 -21.92499924   NAN
 -21.87750053   NAN
 -21.82999992   NAN
 -21.78249931   NAN
 -21.73500061   NAN
 -21.68750000   NAN
 -21.63999939   NAN
 -21.59250069   NAN
 -21.54500008   NAN
 -21.49749947   NAN
 -21.45000076   NAN
 -21.40250015   NAN
 -21.35499954   NAN
 -21.30750084   NAN
 -21.26000023   NAN
 -21.21249962   NAN
 -21.16500092   NAN
 -21.11750031   NAN
 -21.06999969   NAN
 -21.02249908   NAN
 -20.97500038   NAN
 -20.92749977   NAN
 -20.87999916   NAN
 -20.83250046   NAN
 -20.78499985   NAN
 -20.73749924   NAN
 -20.69000053   NAN
 -20.64249992   NAN
 -20.59499931   NAN
 -20.54750061   NAN
 -20.50000000   NAN
 -20.45249939   NAN
 -20.40500069   NAN
 -20.35750008   NAN
 -20.30999947   NAN
 -20.26250076   NAN
 -20.21500015   NAN
 -20.16749954   NAN
 -20.12000084   NAN
 -20.07250023   NAN
 -20.02499962   NAN
 -19.97750092   NAN
 -19.93000031   NAN
 -19.88249969   NAN
 -19.83499908   NAN
 -19.78750038   NAN
 -19.73999977   NAN
 -19.69249916   NAN
 -19.64500046   NAN
 -19.59749985   NAN
 -19.54999924   NAN
 -19.50250053   NAN
 -19.45499992   NAN
 -19.40749931   NAN
 -19.36000061   NAN
 -19.31250000   NAN
 -19.26499939   NAN
 -19.21750069   NAN
 -19.17000008   NAN
 -19.12249947   NAN
 -19.07500076   NAN
 -19.02750015   NAN
 -18.97999954   NAN
 -18.93250084   NAN
 -18.88500023   NAN
 -18.83749962   NAN
 -18.79000092   NAN
 -18.74250031   NAN
 -18.69499969   NAN
 -18.64749908   NAN
 -18.60000038   NAN
 -18.55249977   NAN
 -18.50499916   NAN
 -18.45750046   NAN
 -18.40999985   NAN
 -18.36249924   NAN
 -18.31500053   NAN
 -18.26749992   NAN
 -18.21999931   NAN
 -18.17250061   NAN
 -18.12500000   NAN
 -18.07749939   NAN
 -18.03000069   NAN
 -17.98250008   NAN
 -17.93499947   NAN
 -17.88750076   NAN
 -17.84000015   NAN
 -17.79249954   NAN
 -17.74500084   NAN
 -17.69750023   NAN
 -17.64999962   NAN
 -17.60250092   NAN
 -17.55500031   NAN
 -17.50749969   NAN
 -17.45999908   NAN
 -17.41250038   NAN
 -17.36499977   NAN
 -17.31749916   NAN
 -17.27000046   NAN
 -17.22249985   NAN
 -17.17499924   NAN
 -17.12750053   NAN
 -17.07999992   NAN
 -17.03249931   NAN
 -16.98500061   NAN
 -16.93750000   NAN
 -16.88999939   NAN
 -16.84250069   NAN
 -16.79500008   NAN
 -16.74749947   NAN
 -16.70000076   NAN
 -16.65250015   NAN
 -16.60499954   NAN
 -16.55750084   NAN
 -16.51000023   NAN
 -16.46249962   NAN
 -16.41500092   NAN
 -16.36750031   NAN
 -16.31999969   NAN
 -16.27249908   NAN
 -16.22500038   NAN
 -16.17749977   NAN
 -16.12999916   NAN
 -16.08250046   NAN
 -16.03499985   NAN
 -15.98750019   NAN
 -15.93999958   NAN
 -15.89249992   NAN
 -15.84500027   NAN
 -15.79749966   NAN
