 -30.00000000   6143190.000
 -29.95249939   6143502.500
 -29.90500069   6143818.000
 -29.85750008   6144131.000
 -29.80999947   6144443.500
 -29.76250076   6144758.000
 -29.71500015   6145070.500
 -29.66749954   6145381.500
 -29.62000084   6145694.000
 -29.57250023   6146008.000
 -29.52499962   6146322.500
 -29.47750092   6146640.000
 -29.43000031   6146960.500
 -29.38249969   6147281.000
 -29.33499908   6147602.000
 -29.28750038   6147920.500
 -29.23999977   6148238.000
 -29.19249916   6148551.000
 -29.14500046   6148864.000
 -29.09749985   6149173.500
 -29.04999924   6149482.500
 -29.00250053   6149792.500
 -28.95499992   6150103.500
 -28.90749931   6150418.000
 -28.86000061   6150732.000
 -28.81250000   6151046.500
 -28.76499939   6151361.000
 -28.71750069   6151673.500
 -28.67000008   6151981.000
 -28.62249947   6152285.000
 -28.57500076   6152588.000
 -28.52750015   6152887.500
 -28.47999954   6153189.000
 -28.43250084   6153493.500
 -28.38500023   6153800.000
 -28.33749962   6154110.500
 -28.29000092   6154425.000
 -28.24250031   6154742.500
 -28.19499969   6155061.000
 -28.14749908   6155380.000
 -28.10000038   6155698.500
 -28.05249977   6156013.500
 -28.00499916   6156328.500
 -27.95750046   6156640.500
 -27.90999985   6156951.000
 -27.86249924   6157262.000
 -27.81500053   6157570.500
 -27.76749992   6157879.500
 -27.71999931   6158189.000
 -27.67250061   6158496.000
 -27.62500000   6158804.000
 -27.57749939   6159109.500
 -27.53000069   6159416.000
 -27.48250008   6159720.000
 -27.43499947   6160024.000
 -27.38750076   6160328.500
 -27.34000015   6160633.500
 -27.29249954   6160942.500
 -27.24500084   6161253.500
 -27.19750023   6161567.000
 -27.14999962   6161882.000
 -27.10250092   6162199.500
 -27.05500031   6162516.500
 -27.00749969   6162833.000
 -26.95999908   6163147.000
 -26.91250038   6163461.000
 -26.86499977   6163772.000
 -26.81749916   6164080.500
 -26.77000046   6164388.500
 -26.72249985   6164694.000
 -26.67499924   6164999.000
 -26.62750053   6165302.000
 -26.57999992   6165609.000
 -26.53249931   6165916.500
 -26.48500061   6166227.000
 -26.43750000   6166539.500
 -26.38999939   6166853.500
 -26.34250069   6167170.500
 -26.29500008   6167487.500
 -26.24749947   6167801.500
 -26.20000076   6168115.500
 -26.15250015   6168427.000
 -26.10499954   6168738.000
 -26.05750084   6169048.500
 -26.01000023   6169356.500
 -25.96249962   6169666.000
 -25.91500092   6169975.000
 -25.86750031   6170283.500
 -25.81999969   6170592.500
 -25.77249908   6170902.500
 -25.72500038   6171211.500
 -25.67749977   6171520.500
 -25.62999916   6171831.000
 -25.58250046   6172143.500
 -25.53499985   6172456.500
 -25.48749924   6172768.500
 -25.44000053   6173081.500
 -25.39249992   6173393.500
 -25.34499931   6173703.000
 -25.29750061   6174009.000
 -25.25000000   6174313.500
 -25.20249939   6174616.000
 -25.15500069   6174919.000
 -25.10750008   6175223.500
 -25.05999947   6175529.500
 -25.01250076   6175842.500
 -24.96500015   6176156.500
 -24.91749954   6176472.500
 -24.87000084   6176789.000
 -24.82250023   6177108.000
 -24.77499962   6177424.500
 -24.72750092   6177737.500
 -24.68000031   6178051.000
 -24.63249969   6178364.000
 -24.58499908   NAN
 -24.53750038   NAN
 -24.48999977   NAN
 -24.44249916   NAN
 -24.39500046   NAN
 -24.34749985   NAN
 -24.29999924   NAN
 -24.25250053   NAN
 -24.20499992   NAN
 -24.15749931   NAN
 -24.11000061   NAN
 -24.06250000   NAN
 -24.01499939   NAN
 -23.96750069   NAN
 -23.92000008   NAN
 -23.87249947   NAN
 -23.82500076   NAN
 -23.77750015   NAN
 -23.72999954   NAN
 -23.68250084   NAN
 -23.63500023   NAN
 -23.58749962   NAN
 -23.54000092   NAN
 -23.49250031   NAN
 -23.44499969   NAN
 -23.39749908   NAN
 -23.35000038   NAN
 -23.30249977   NAN
 -23.25499916   NAN
 -23.20750046   NAN
 -23.15999985   NAN
 -23.11249924   NAN
 -23.06500053   NAN
 -23.01749992   NAN
 -22.96999931   NAN
 -22.92250061   NAN
 -22.87500000   NAN
 -22.82749939   NAN
 -22.78000069   NAN
 -22.73250008   NAN
 -22.68499947   NAN
 -22.63750076   NAN
 -22.59000015   NAN
 -22.54249954   NAN
 -22.49500084   NAN
 -22.44750023   NAN
 -22.39999962   NAN
 -22.35250092   NAN
 -22.30500031   NAN
 -22.25749969   NAN
 -22.20999908   NAN
 -22.16250038   NAN
 -22.11499977   NAN
 -22.06749916   NAN
 -22.02000046   NAN
 -21.97249985   NAN
 -21.92499924   NAN
 -21.87750053   NAN
 -21.82999992   NAN
 -21.78249931   NAN
 -21.73500061   NAN
 -21.68750000   NAN
 -21.63999939   NAN
 -21.59250069   NAN
 -21.54500008   NAN
 -21.49749947   NAN
 -21.45000076   NAN
 -21.40250015   NAN
 -21.35499954   NAN
 -21.30750084   NAN
 -21.26000023   NAN
 -21.21249962   NAN
 -21.16500092   NAN
 -21.11750031   NAN
 -21.06999969   NAN
 -21.02249908   NAN
 -20.97500038   NAN
 -20.92749977   NAN
 -20.87999916   NAN
 -20.83250046   NAN
 -20.78499985   NAN
 -20.73749924   NAN
 -20.69000053   NAN
 -20.64249992   NAN
 -20.59499931   NAN
 -20.54750061   NAN
 -20.50000000   NAN
 -20.45249939   NAN
 -20.40500069   NAN
 -20.35750008   NAN
 -20.30999947   NAN
 -20.26250076   NAN
 -20.21500015   NAN
 -20.16749954   NAN
 -20.12000084   NAN
 -20.07250023   NAN
 -20.02499962   NAN
 -19.97750092   NAN
 -19.93000031   NAN
 -19.88249969   NAN
 -19.83499908   NAN
 -19.78750038   NAN
 -19.73999977   NAN
 -19.69249916   NAN
 -19.64500046   NAN
 -19.59749985   NAN
 -19.54999924   NAN
 -19.50250053   NAN
 -19.45499992   NAN
 -19.40749931   NAN
 -19.36000061   NAN
 -19.31250000   NAN
 -19.26499939   NAN
 -19.21750069   NAN
 -19.17000008   NAN
 -19.12249947   NAN
 -19.07500076   NAN
 -19.02750015   NAN
 -18.97999954   NAN
 -18.93250084   NAN
 -18.88500023   NAN
 -18.83749962   NAN
 -18.79000092   NAN
 -18.74250031   NAN
 -18.69499969   NAN
 -18.64749908   NAN
 -18.60000038   NAN
 -18.55249977   NAN
 -18.50499916   NAN
 -18.45750046   NAN
 -18.40999985   NAN
 -18.36249924   NAN
 -18.31500053   NAN
 -18.26749992   NAN
 -18.21999931   NAN
 -18.17250061   NAN
 -18.12500000   NAN
 -18.07749939   NAN
 -18.03000069   NAN
 -17.98250008   NAN
 -17.93499947   NAN
 -17.88750076   NAN
 -17.84000015   NAN
 -17.79249954   NAN
 -17.74500084   NAN
 -17.69750023   NAN
 -17.64999962   NAN
 -17.60250092   NAN
 -17.55500031   NAN
 -17.50749969   NAN
 -17.45999908   NAN
 -17.41250038   NAN
 -17.36499977   NAN
 -17.31749916   NAN
 -17.27000046   NAN
 -17.22249985   NAN
 -17.17499924   NAN
 -17.12750053   NAN
 -17.07999992   NAN
 -17.03249931   NAN
 -16.98500061   NAN
 -16.93750000   NAN
 -16.88999939   NAN
 -16.84250069   NAN
 -16.79500008   NAN
 -16.74749947   NAN
 -16.70000076   NAN
 -16.65250015   NAN
 -16.60499954   NAN
 -16.55750084   NAN
 -16.51000023   NAN
 -16.46249962   NAN
 -16.41500092   NAN
 -16.36750031   NAN
 -16.31999969   NAN
 -16.27249908   NAN
 -16.22500038   NAN
 -16.17749977   NAN
 -16.12999916   NAN
 -16.08250046   NAN
 -16.03499985   NAN
 -15.98750019   NAN
 -15.93999958   NAN
 -15.89249992   NAN
 -15.84500027   NAN
 -15.79749966   NAN
