 -30.00000000   7423388.000
 -29.95249939   7423768.500
 -29.90500069   7424147.500
 -29.85750008   7424527.500
 -29.80999947   7424907.000
 -29.76250076   7425284.500
 -29.71500015   7425665.000
 -29.66749954   7426044.000
 -29.62000084   7426424.000
 -29.57250023   7426804.500
 -29.52499962   7427182.500
 -29.47750092   7427563.000
 -29.43000031   7427942.000
 -29.38249969   7428321.000
 -29.33499908   7428699.000
 -29.28750038   7429079.000
 -29.23999977   7429458.000
 -29.19249916   7429837.000
 -29.14500046   7430214.500
 -29.09749985   7430593.500
 -29.04999924   7430972.500
 -29.00250053   7431350.500
 -28.95499992   7431729.500
 -28.90749931   7432108.000
 -28.86000061   7432487.000
 -28.81250000   7432865.000
 -28.76499939   7433244.500
 -28.71750069   7433623.500
 -28.67000008   7434003.500
 -28.62249947   7434385.500
 -28.57500076   7434765.000
 -28.52750015   7435148.000
 -28.47999954   7435529.000
 -28.43250084   7435910.500
 -28.38500023   7436291.000
 -28.33749962   7436670.500
 -28.29000092   7437050.500
 -28.24250031   7437427.000
 -28.19499969   7437805.500
 -28.14749908   7438181.500
 -28.10000038   7438556.500
 -28.05249977   7438933.000
 -28.00499916   7439310.500
 -27.95750046   7439686.000
 -27.90999985   7440065.500
 -27.86249924   7440444.000
 -27.81500053   7440823.000
 -27.76749992   7441199.500
 -27.71999931   7441580.000
 -27.67250061   7441960.000
 -27.62500000   7442339.000
 -27.57749939   7442715.500
 -27.53000069   7443094.500
 -27.48250008   7443472.000
 -27.43499947   7443850.000
 -27.38750076   7444228.500
 -27.34000015   7444606.500
 -27.29249954   7444984.000
 -27.24500084   7445361.500
 -27.19750023   7445737.500
 -27.14999962   7446114.000
 -27.10250092   7446491.500
 -27.05500031   7446869.000
 -27.00749969   7447246.000
 -26.95999908   7447623.000
 -26.91250038   7448000.500
 -26.86499977   7448379.000
 -26.81749916   7448755.000
 -26.77000046   7449134.000
 -26.72249985   7449511.500
 -26.67499924   7449890.500
 -26.62750053   7450267.000
 -26.57999992   7450644.500
 -26.53249931   7451022.000
 -26.48500061   7451400.000
 -26.43750000   7451777.500
 -26.38999939   7452155.000
 -26.34250069   7452533.500
 -26.29500008   7452912.500
 -26.24749947   7453290.500
 -26.20000076   7453668.500
 -26.15250015   7454047.000
 -26.10499954   7454426.500
 -26.05750084   7454805.000
 -26.01000023   7455184.000
 -25.96249962   7455562.000
 -25.91500092   7455939.000
 -25.86750031   7456315.000
 -25.81999969   7456690.000
 -25.77249908   7457068.000
 -25.72500038   7457443.500
 -25.67749977   7457821.000
 -25.62999916   7458197.500
 -25.58250046   7458573.500
 -25.53499985   7458950.000
 -25.48749924   7459327.500
 -25.44000053   7459703.500
 -25.39249992   7460080.500
 -25.34499931   7460458.500
 -25.29750061   7460835.000
 -25.25000000   7461211.000
 -25.20249939   7461588.500
 -25.15500069   7461967.000
 -25.10750008   7462343.500
 -25.05999947   7462721.000
 -25.01250076   7463098.500
 -24.96500015   7463476.500
 -24.91749954   7463855.000
 -24.87000084   7464232.500
 -24.82250023   7464610.500
 -24.77499962   7464984.000
 -24.72750092   7465360.000
 -24.68000031   7465733.000
 -24.63249969   7466109.000
 -24.58499908   7466482.000
 -24.53750038   7466857.000
 -24.48999977   7467231.000
 -24.44249916   7467606.500
 -24.39500046   7467982.500
 -24.34749985   7468361.000
 -24.29999924   7468739.000
 -24.25250053   7469120.500
 -24.20499992   7469501.500
 -24.15749931   7469882.000
 -24.11000061   7470263.500
 -24.06250000   7470641.000
 -24.01499939   7471017.500
 -23.96750069   7471394.500
 -23.92000008   7471770.000
 -23.87249947   7472144.500
 -23.82500076   7472519.000
 -23.77750015   7472893.500
 -23.72999954   7473267.000
 -23.68250084   7473641.000
 -23.63500023   7474015.500
 -23.58749962   7474389.500
 -23.54000092   7474765.500
 -23.49250031   7475141.000
 -23.44499969   7475515.000
 -23.39749908   7475889.500
 -23.35000038   7476265.500
 -23.30249977   7476641.500
 -23.25499916   7477017.500
 -23.20750046   7477394.000
 -23.15999985   7477771.000
 -23.11249924   7478147.000
 -23.06500053   7478524.500
 -23.01749992   7478898.500
 -22.96999931   7479275.500
 -22.92250061   7479650.000
 -22.87500000   7480023.000
 -22.82749939   7480397.000
 -22.78000069   7480772.500
 -22.73250008   7481145.500
 -22.68499947   7481520.500
 -22.63750076   7481895.500
 -22.59000015   7482272.500
 -22.54249954   7482649.000
 -22.49500084   7483026.500
 -22.44750023   7483404.500
 -22.39999962   7483783.000
 -22.35250092   7484160.500
 -22.30500031   7484535.500
 -22.25749969   7484910.000
 -22.20999908   7485281.500
 -22.16250038   7485654.500
 -22.11499977   7486025.000
 -22.06749916   7486397.000
 -22.02000046   7486767.000
 -21.97249985   7487139.000
 -21.92499924   7487513.000
 -21.87750053   7487888.500
 -21.82999992   7488264.500
 -21.78249931   7488643.000
 -21.73500061   7489022.500
 -21.68750000   7489403.000
 -21.63999939   7489780.000
 -21.59250069   7490158.000
 -21.54500008   7490535.500
 -21.49749947   7490914.500
 -21.45000076   7491288.000
 -21.40250015   7491663.500
 -21.35499954   7492035.500
 -21.30750084   NAN
 -21.26000023   NAN
 -21.21249962   NAN
 -21.16500092   NAN
 -21.11750031   NAN
 -21.06999969   NAN
 -21.02249908   NAN
 -20.97500038   NAN
 -20.92749977   NAN
 -20.87999916   NAN
 -20.83250046   NAN
 -20.78499985   NAN
 -20.73749924   NAN
 -20.69000053   NAN
 -20.64249992   NAN
 -20.59499931   NAN
 -20.54750061   NAN
 -20.50000000   NAN
 -20.45249939   NAN
 -20.40500069   NAN
 -20.35750008   NAN
 -20.30999947   NAN
 -20.26250076   NAN
 -20.21500015   NAN
 -20.16749954   NAN
 -20.12000084   NAN
 -20.07250023   NAN
 -20.02499962   NAN
 -19.97750092   NAN
 -19.93000031   NAN
 -19.88249969   NAN
 -19.83499908   NAN
 -19.78750038   NAN
 -19.73999977   NAN
 -19.69249916   NAN
 -19.64500046   NAN
 -19.59749985   NAN
 -19.54999924   NAN
 -19.50250053   NAN
 -19.45499992   NAN
 -19.40749931   NAN
 -19.36000061   NAN
 -19.31250000   NAN
 -19.26499939   NAN
 -19.21750069   NAN
 -19.17000008   NAN
 -19.12249947   NAN
 -19.07500076   NAN
 -19.02750015   NAN
 -18.97999954   NAN
 -18.93250084   NAN
 -18.88500023   NAN
 -18.83749962   NAN
 -18.79000092   NAN
 -18.74250031   NAN
 -18.69499969   NAN
 -18.64749908   NAN
 -18.60000038   NAN
 -18.55249977   NAN
 -18.50499916   NAN
 -18.45750046   NAN
 -18.40999985   NAN
 -18.36249924   NAN
 -18.31500053   NAN
 -18.26749992   NAN
 -18.21999931   NAN
 -18.17250061   NAN
 -18.12500000   NAN
 -18.07749939   NAN
 -18.03000069   NAN
 -17.98250008   NAN
 -17.93499947   NAN
 -17.88750076   NAN
 -17.84000015   NAN
 -17.79249954   NAN
 -17.74500084   NAN
 -17.69750023   NAN
 -17.64999962   NAN
 -17.60250092   NAN
 -17.55500031   NAN
 -17.50749969   NAN
 -17.45999908   NAN
 -17.41250038   NAN
 -17.36499977   NAN
 -17.31749916   NAN
 -17.27000046   NAN
 -17.22249985   NAN
 -17.17499924   NAN
 -17.12750053   NAN
 -17.07999992   NAN
 -17.03249931   NAN
 -16.98500061   NAN
 -16.93750000   NAN
 -16.88999939   NAN
 -16.84250069   NAN
 -16.79500008   NAN
 -16.74749947   NAN
 -16.70000076   NAN
 -16.65250015   NAN
 -16.60499954   NAN
 -16.55750084   NAN
 -16.51000023   NAN
 -16.46249962   NAN
 -16.41500092   NAN
 -16.36750031   NAN
 -16.31999969   NAN
 -16.27249908   NAN
 -16.22500038   NAN
 -16.17749977   NAN
 -16.12999916   NAN
 -16.08250046   NAN
 -16.03499985   NAN
 -15.98750019   NAN
 -15.93999958   NAN
 -15.89249992   NAN
 -15.84500027   NAN
 -15.79749966   NAN
