 -30.00000000   1310322.000
 -29.95249939   1310386.875
 -29.90500069   1310450.250
 -29.85750008   1310512.000
 -29.80999947   1310573.625
 -29.76250076   1310637.250
 -29.71500015   1310699.250
 -29.66749954   1310765.625
 -29.62000084   1310831.875
 -29.57250023   1310899.625
 -29.52499962   1310967.000
 -29.47750092   1311034.375
 -29.43000031   1311098.500
 -29.38249969   1311162.375
 -29.33499908   1311223.000
 -29.28750038   1311282.500
 -29.23999977   1311342.750
 -29.19249916   1311401.000
 -29.14500046   1311462.250
 -29.09749985   1311524.250
 -29.04999924   1311589.750
 -29.00250053   1311658.000
 -28.95499992   1311728.500
 -28.90749931   1311797.125
 -28.86000061   1311866.250
 -28.81250000   1311932.875
 -28.76499939   1311997.125
 -28.71750069   1312056.500
 -28.67000008   1312115.125
 -28.62249947   1312173.250
 -28.57500076   1312231.625
 -28.52750015   1312292.375
 -28.47999954   1312356.250
 -28.43250084   1312422.125
 -28.38500023   1312490.375
 -28.33749962   1312561.250
 -28.29000092   1312630.250
 -28.24250031   1312698.125
 -28.19499969   1312761.250
 -28.14749908   1312822.125
 -28.10000038   1312880.875
 -28.05249977   1312936.875
 -28.00499916   1312993.250
 -27.95750046   1313051.000
 -27.90999985   1313111.750
 -27.86249924   1313175.750
 -27.81500053   1313242.625
 -27.76749992   1313311.875
 -27.71999931   1313382.500
 -27.67250061   1313452.000
 -27.62500000   1313518.500
 -27.57749939   1313583.875
 -27.53000069   1313644.250
 -27.48250008   1313701.500
 -27.43499947   1313758.750
 -27.38750076   1313814.375
 -27.34000015   1313871.750
 -27.29249954   1313933.375
 -27.24500084   1313997.125
 -27.19750023   1314065.875
 -27.14999962   1314135.500
 -27.10250092   1314207.125
 -27.05500031   1314276.375
 -27.00749969   1314343.250
 -26.95999908   1314405.000
 -26.91250038   1314463.250
 -26.86499977   1314517.125
 -26.81749916   1314570.625
 -26.77000046   1314623.375
 -26.72249985   1314680.000
 -26.67499924   1314739.750
 -26.62750053   1314805.500
 -26.57999992   1314873.625
 -26.53249931   1314943.375
 -26.48500061   1315015.000
 -26.43750000   1315085.250
 -26.38999939   1315150.875
 -26.34250069   1315214.375
 -26.29500008   1315272.750
 -26.24749947   1315329.125
 -26.20000076   1315385.375
 -26.15250015   1315441.500
 -26.10499954   1315500.625
 -26.05750084   1315562.250
 -26.01000023   1315630.875
 -25.96249962   1315699.250
 -25.91500092   1315771.250
 -25.86750031   1315842.750
 -25.81999969   1315912.750
 -25.77249908   1315980.375
 -25.72500038   1316043.000
 -25.67749977   1316100.000
 -25.62999916   1316155.875
 -25.58250046   1316209.875
 -25.53499985   1316266.000
 -25.48749924   1316324.750
 -25.44000053   1316386.000
 -25.39249992   1316451.875
 -25.34499931   1316519.750
 -25.29750061   1316589.125
 -25.25000000   1316660.375
 -25.20249939   1316728.000
 -25.15500069   1316794.125
 -25.10750008   1316855.500
 -25.05999947   1316912.250
 -25.01250076   1316966.625
 -24.96500015   1317022.875
 -24.91749954   1317079.750
 -24.87000084   1317140.750
 -24.82250023   1317206.125
 -24.77499962   1317276.000
 -24.72750092   1317349.625
 -24.68000031   1317424.625
 -24.63249969   1317500.625
 -24.58499908   1317572.125
 -24.53750038   1317639.250
 -24.48999977   1317701.625
 -24.44249916   1317757.875
 -24.39500046   1317811.375
 -24.34749985   1317863.875
 -24.29999924   1317917.875
 -24.25250053   1317977.000
 -24.20499992   1318041.000
 -24.15749931   1318112.000
 -24.11000061   1318185.875
 -24.06250000   1318262.625
 -24.01499939   1318337.750
 -23.96750069   1318409.625
 -23.92000008   1318473.250
 -23.87249947   1318532.875
 -23.82500076   1318585.750
 -23.77750015   1318638.875
 -23.72999954   1318690.250
 -23.68250084   1318747.125
 -23.63500023   1318809.125
 -23.58749962   1318877.375
 -23.54000092   1318948.750
 -23.49250031   1319024.000
 -23.44499969   1319096.875
 -23.39749908   1319168.375
 -23.35000038   1319233.500
 -23.30249977   1319294.500
 -23.25499916   1319350.250
 -23.20750046   1319403.500
 -23.15999985   1319456.875
 -23.11249924   1319513.250
 -23.06500053   1319575.750
 -23.01749992   1319645.875
 -22.96999931   1319719.500
 -22.92250061   1319795.875
 -22.87500000   1319873.125
 -22.82749939   1319946.625
 -22.78000069   1320016.750
 -22.73250008   1320077.125
 -22.68499947   1320132.750
 -22.63750076   1320183.750
 -22.59000015   1320232.875
 -22.54249954   1320282.125
 -22.49500084   1320336.500
 -22.44750023   1320397.125
 -22.39999962   1320464.625
 -22.35250092   1320536.750
 -22.30500031   1320612.250
 -22.25749969   1320686.375
 -22.20999908   1320757.000
 -22.16250038   1320824.500
 -22.11499977   1320886.875
 -22.06749916   1320944.875
 -22.02000046   1321002.125
 -21.97249985   1321060.625
 -21.92499924   1321121.750
 -21.87750053   1321187.750
 -21.82999992   1321259.500
 -21.78249931   1321333.250
 -21.73500061   1321409.625
 -21.68750000   1321481.750
 -21.63999939   1321551.125
 -21.59250069   1321615.125
 -21.54500008   1321673.125
 -21.49749947   1321728.125
 -21.45000076   1321780.875
 -21.40250015   1321835.750
 -21.35499954   1321894.375
 -21.30750084   NAN
 -21.26000023   NAN
 -21.21249962   NAN
 -21.16500092   NAN
 -21.11750031   NAN
 -21.06999969   NAN
 -21.02249908   NAN
 -20.97500038   NAN
 -20.92749977   NAN
 -20.87999916   NAN
 -20.83250046   NAN
 -20.78499985   NAN
 -20.73749924   NAN
 -20.69000053   NAN
 -20.64249992   NAN
 -20.59499931   NAN
 -20.54750061   NAN
 -20.50000000   NAN
 -20.45249939   NAN
 -20.40500069   NAN
 -20.35750008   NAN
 -20.30999947   NAN
 -20.26250076   NAN
 -20.21500015   NAN
 -20.16749954   NAN
 -20.12000084   NAN
 -20.07250023   NAN
 -20.02499962   NAN
 -19.97750092   NAN
 -19.93000031   NAN
 -19.88249969   NAN
 -19.83499908   NAN
 -19.78750038   NAN
 -19.73999977   NAN
 -19.69249916   NAN
 -19.64500046   NAN
 -19.59749985   NAN
 -19.54999924   NAN
 -19.50250053   NAN
 -19.45499992   NAN
 -19.40749931   NAN
 -19.36000061   NAN
 -19.31250000   NAN
 -19.26499939   NAN
 -19.21750069   NAN
 -19.17000008   NAN
 -19.12249947   NAN
 -19.07500076   NAN
 -19.02750015   NAN
 -18.97999954   NAN
 -18.93250084   NAN
 -18.88500023   NAN
 -18.83749962   NAN
 -18.79000092   NAN
 -18.74250031   NAN
 -18.69499969   NAN
 -18.64749908   NAN
 -18.60000038   NAN
 -18.55249977   NAN
 -18.50499916   NAN
 -18.45750046   NAN
 -18.40999985   NAN
 -18.36249924   NAN
 -18.31500053   NAN
 -18.26749992   NAN
 -18.21999931   NAN
 -18.17250061   NAN
 -18.12500000   NAN
 -18.07749939   NAN
 -18.03000069   NAN
 -17.98250008   NAN
 -17.93499947   NAN
 -17.88750076   NAN
 -17.84000015   NAN
 -17.79249954   NAN
 -17.74500084   NAN
 -17.69750023   NAN
 -17.64999962   NAN
 -17.60250092   NAN
 -17.55500031   NAN
 -17.50749969   NAN
 -17.45999908   NAN
 -17.41250038   NAN
 -17.36499977   NAN
 -17.31749916   NAN
 -17.27000046   NAN
 -17.22249985   NAN
 -17.17499924   NAN
 -17.12750053   NAN
 -17.07999992   NAN
 -17.03249931   NAN
 -16.98500061   NAN
 -16.93750000   NAN
 -16.88999939   NAN
 -16.84250069   NAN
 -16.79500008   NAN
 -16.74749947   NAN
 -16.70000076   NAN
 -16.65250015   NAN
 -16.60499954   NAN
 -16.55750084   NAN
 -16.51000023   NAN
 -16.46249962   NAN
 -16.41500092   NAN
 -16.36750031   NAN
 -16.31999969   NAN
 -16.27249908   NAN
 -16.22500038   NAN
 -16.17749977   NAN
 -16.12999916   NAN
 -16.08250046   NAN
 -16.03499985   NAN
 -15.98750019   NAN
 -15.93999958   NAN
 -15.89249992   NAN
 -15.84500027   NAN
 -15.79749966   NAN
