 -30.00000000   8059633.000
 -29.95249939   8060046.500
 -29.90500069   8060457.000
 -29.85750008   8060870.500
 -29.80999947   8061282.000
 -29.76250076   8061693.500
 -29.71500015   8062106.000
 -29.66749954   8062517.500
 -29.62000084   8062929.500
 -29.57250023   8063342.500
 -29.52499962   8063753.500
 -29.47750092   8064167.000
 -29.43000031   8064579.000
 -29.38249969   8064992.000
 -29.33499908   8065403.000
 -29.28750038   8065815.500
 -29.23999977   8066226.000
 -29.19249916   8066638.500
 -29.14500046   8067049.500
 -29.09749985   8067462.000
 -29.04999924   8067872.000
 -29.00250053   8068284.500
 -28.95499992   8068694.500
 -28.90749931   8069105.500
 -28.86000061   8069517.000
 -28.81250000   8069930.000
 -28.76499939   8070341.000
 -28.71750069   8070754.000
 -28.67000008   8071166.000
 -28.62249947   8071578.500
 -28.57500076   8071993.000
 -28.52750015   8072404.500
 -28.47999954   8072817.500
 -28.43250084   8073231.000
 -28.38500023   8073645.000
 -28.33749962   8074055.500
 -28.29000092   8074467.500
 -28.24250031   8074878.000
 -28.19499969   8075289.000
 -28.14749908   8075699.000
 -28.10000038   8076109.500
 -28.05249977   8076518.500
 -28.00499916   8076930.500
 -27.95750046   8077339.000
 -27.90999985   8077750.000
 -27.86249924   8078158.500
 -27.81500053   8078569.500
 -27.76749992   8078978.500
 -27.71999931   8079388.000
 -27.67250061   8079799.000
 -27.62500000   8080211.500
 -27.57749939   8080623.000
 -27.53000069   8081035.500
 -27.48250008   8081447.500
 -27.43499947   8081860.000
 -27.38750076   8082272.000
 -27.34000015   8082682.500
 -27.29249954   8083092.000
 -27.24500084   8083501.500
 -27.19750023   8083910.000
 -27.14999962   8084318.500
 -27.10250092   8084728.000
 -27.05500031   8085136.500
 -27.00749969   8085546.000
 -26.95999908   8085954.500
 -26.91250038   8086364.500
 -26.86499977   8086773.000
 -26.81749916   8087183.500
 -26.77000046   8087592.500
 -26.72249985   8088003.000
 -26.67499924   8088413.000
 -26.62750053   8088824.500
 -26.57999992   8089237.000
 -26.53249931   8089648.500
 -26.48500061   8090062.500
 -26.43750000   8090475.500
 -26.38999939   8090888.000
 -26.34250069   8091299.000
 -26.29500008   8091709.000
 -26.24749947   8092119.000
 -26.20000076   8092527.000
 -26.15250015   8092935.000
 -26.10499954   8093342.000
 -26.05750084   8093749.000
 -26.01000023   8094157.500
 -25.96249962   8094568.000
 -25.91500092   8094978.000
 -25.86750031   8095390.500
 -25.81999969   8095803.500
 -25.77249908   8096217.500
 -25.72500038   8096630.500
 -25.67749977   8097042.000
 -25.62999916   8097454.500
 -25.58250046   8097864.500
 -25.53499985   8098275.000
 -25.48749924   8098683.500
 -25.44000053   8099092.000
 -25.39249992   8099500.500
 -25.34499931   8099908.500
 -25.29750061   8100318.000
 -25.25000000   8100726.500
 -25.20249939   8101136.500
 -25.15500069   8101548.000
 -25.10750008   8101957.500
 -25.05999947   8102368.500
 -25.01250076   8102778.500
 -24.96500015   8103188.500
 -24.91749954   8103600.500
 -24.87000084   8104012.000
 -24.82250023   8104423.500
 -24.77499962   8104833.500
 -24.72750092   8105243.000
 -24.68000031   8105651.000
 -24.63249969   8106058.000
 -24.58499908   8106463.500
 -24.53750038   8106869.000
 -24.48999977   8107276.000
 -24.44249916   8107684.000
 -24.39500046   8108094.000
 -24.34749985   8108504.500
 -24.29999924   8108916.000
 -24.25250053   8109329.000
 -24.20499992   8109741.500
 -24.15749931   8110153.000
 -24.11000061   8110563.500
 -24.06250000   8110972.000
 -24.01499939   8111379.500
 -23.96750069   8111786.000
 -23.92000008   8112191.500
 -23.87249947   8112599.500
 -23.82500076   8113006.500
 -23.77750015   8113416.500
 -23.72999954   8113826.000
 -23.68250084   8114235.500
 -23.63500023   8114645.500
 -23.58749962   8115056.500
 -23.54000092   8115464.000
 -23.49250031   8115873.000
 -23.44499969   8116278.500
 -23.39749908   8116684.000
 -23.35000038   8117088.500
 -23.30249977   8117495.000
 -23.25499916   8117899.000
 -23.20750046   8118307.500
 -23.15999985   8118716.500
 -23.11249924   8119127.000
 -23.06500053   8119538.000
 -23.01749992   8119949.500
 -22.96999931   8120361.500
 -22.92250061   8120772.000
 -22.87500000   8121182.500
 -22.82749939   8121589.500
 -22.78000069   8121995.500
 -22.73250008   8122399.000
 -22.68499947   8122803.000
 -22.63750076   8123205.000
 -22.59000015   8123610.500
 -22.54249954   8124015.000
 -22.49500084   8124423.000
 -22.44750023   8124831.000
 -22.39999962   8125240.500
 -22.35250092   8125649.500
 -22.30500031   8126059.000
 -22.25749969   8126469.000
 -22.20999908   8126880.000
 -22.16250038   8127289.500
 -22.11499977   8127698.000
 -22.06749916   8128107.500
 -22.02000046   8128516.500
 -21.97249985   8128926.000
 -21.92499924   8129337.000
 -21.87750053   8129745.500
 -21.82999992   8130151.000
 -21.78249931   8130556.500
 -21.73500061   8130963.000
 -21.68750000   8131366.000
 -21.63999939   8131771.000
 -21.59250069   8132176.500
 -21.54500008   8132583.000
 -21.49749947   8132991.000
 -21.45000076   8133399.500
 -21.40250015   8133810.500
 -21.35499954   8134217.500
 -21.30750084   NAN
 -21.26000023   NAN
 -21.21249962   NAN
 -21.16500092   NAN
 -21.11750031   NAN
 -21.06999969   NAN
 -21.02249908   NAN
 -20.97500038   NAN
 -20.92749977   NAN
 -20.87999916   NAN
 -20.83250046   NAN
 -20.78499985   NAN
 -20.73749924   NAN
 -20.69000053   NAN
 -20.64249992   NAN
 -20.59499931   NAN
 -20.54750061   NAN
 -20.50000000   NAN
 -20.45249939   NAN
 -20.40500069   NAN
 -20.35750008   NAN
 -20.30999947   NAN
 -20.26250076   NAN
 -20.21500015   NAN
 -20.16749954   NAN
 -20.12000084   NAN
 -20.07250023   NAN
 -20.02499962   NAN
 -19.97750092   NAN
 -19.93000031   NAN
 -19.88249969   NAN
 -19.83499908   NAN
 -19.78750038   NAN
 -19.73999977   NAN
 -19.69249916   NAN
 -19.64500046   NAN
 -19.59749985   NAN
 -19.54999924   NAN
 -19.50250053   NAN
 -19.45499992   NAN
 -19.40749931   NAN
 -19.36000061   NAN
 -19.31250000   NAN
 -19.26499939   NAN
 -19.21750069   NAN
 -19.17000008   NAN
 -19.12249947   NAN
 -19.07500076   NAN
 -19.02750015   NAN
 -18.97999954   NAN
 -18.93250084   NAN
 -18.88500023   NAN
 -18.83749962   NAN
 -18.79000092   NAN
 -18.74250031   NAN
 -18.69499969   NAN
 -18.64749908   NAN
 -18.60000038   NAN
 -18.55249977   NAN
 -18.50499916   NAN
 -18.45750046   NAN
 -18.40999985   NAN
 -18.36249924   NAN
 -18.31500053   NAN
 -18.26749992   NAN
 -18.21999931   NAN
 -18.17250061   NAN
 -18.12500000   NAN
 -18.07749939   NAN
 -18.03000069   NAN
 -17.98250008   NAN
 -17.93499947   NAN
 -17.88750076   NAN
 -17.84000015   NAN
 -17.79249954   NAN
 -17.74500084   NAN
 -17.69750023   NAN
 -17.64999962   NAN
 -17.60250092   NAN
 -17.55500031   NAN
 -17.50749969   NAN
 -17.45999908   NAN
 -17.41250038   NAN
 -17.36499977   NAN
 -17.31749916   NAN
 -17.27000046   NAN
 -17.22249985   NAN
 -17.17499924   NAN
 -17.12750053   NAN
 -17.07999992   NAN
 -17.03249931   NAN
 -16.98500061   NAN
 -16.93750000   NAN
 -16.88999939   NAN
 -16.84250069   NAN
 -16.79500008   NAN
 -16.74749947   NAN
 -16.70000076   NAN
 -16.65250015   NAN
 -16.60499954   NAN
 -16.55750084   NAN
 -16.51000023   NAN
 -16.46249962   NAN
 -16.41500092   NAN
 -16.36750031   NAN
 -16.31999969   NAN
 -16.27249908   NAN
 -16.22500038   NAN
 -16.17749977   NAN
 -16.12999916   NAN
 -16.08250046   NAN
 -16.03499985   NAN
 -15.98750019   NAN
 -15.93999958   NAN
 -15.89249992   NAN
 -15.84500027   NAN
 -15.79749966   NAN
