 -30.00000000   5219794.000
 -29.95249939   5220061.000
 -29.90500069   5220328.500
 -29.85750008   5220597.000
 -29.80999947   5220865.000
 -29.76250076   5221134.000
 -29.71500015   5221403.500
 -29.66749954   5221673.500
 -29.62000084   5221944.000
 -29.57250023   5222215.500
 -29.52499962   5222486.000
 -29.47750092   5222758.500
 -29.43000031   5223030.000
 -29.38249969   5223302.000
 -29.33499908   5223574.000
 -29.28750038   5223846.500
 -29.23999977   5224116.500
 -29.19249916   5224388.000
 -29.14500046   5224659.500
 -29.09749985   5224929.500
 -29.04999924   5225201.000
 -29.00250053   5225472.500
 -28.95499992   5225744.000
 -28.90749931   5226017.000
 -28.86000061   5226290.500
 -28.81250000   5226562.500
 -28.76499939   5226836.500
 -28.71750069   5227110.500
 -28.67000008   5227386.500
 -28.62249947   5227662.000
 -28.57500076   5227936.000
 -28.52750015   5228209.500
 -28.47999954   5228482.500
 -28.43250084   5228755.500
 -28.38500023   5229027.000
 -28.33749962   5229296.500
 -28.29000092   5229566.500
 -28.24250031   5229835.500
 -28.19499969   5230104.500
 -28.14749908   5230373.000
 -28.10000038   5230642.000
 -28.05249977   5230911.000
 -28.00499916   5231181.500
 -27.95750046   5231452.000
 -27.90999985   5231723.500
 -27.86249924   5231994.500
 -27.81500053   5232267.000
 -27.76749992   5232539.500
 -27.71999931   5232812.000
 -27.67250061   5233087.000
 -27.62500000   5233359.000
 -27.57749939   5233633.000
 -27.53000069   5233909.000
 -27.48250008   5234184.000
 -27.43499947   5234458.000
 -27.38750076   5234732.500
 -27.34000015   5235008.000
 -27.29249954   5235281.000
 -27.24500084   5235553.000
 -27.19750023   5235825.000
 -27.14999962   5236098.000
 -27.10250092   5236368.500
 -27.05500031   5236639.500
 -27.00749969   5236910.500
 -26.95999908   5237181.500
 -26.91250038   5237451.000
 -26.86499977   5237721.500
 -26.81749916   5237993.500
 -26.77000046   5238264.500
 -26.72249985   5238537.000
 -26.67499924   5238811.000
 -26.62750053   5239085.500
 -26.57999992   5239360.500
 -26.53249931   5239637.000
 -26.48500061   5239914.500
 -26.43750000   5240192.000
 -26.38999939   5240468.500
 -26.34250069   5240746.500
 -26.29500008   5241023.500
 -26.24749947   5241299.000
 -26.20000076   5241573.500
 -26.15250015   5241847.000
 -26.10499954   5242118.000
 -26.05750084   5242387.000
 -26.01000023   5242657.000
 -25.96249962   5242924.500
 -25.91500092   5243192.000
 -25.86750031   5243459.000
 -25.81999969   5243726.500
 -25.77249908   5243993.000
 -25.72500038   5244261.000
 -25.67749977   5244530.500
 -25.62999916   5244801.000
 -25.58250046   5245073.000
 -25.53499985   5245345.500
 -25.48749924   5245620.500
 -25.44000053   5245896.500
 -25.39249992   5246172.500
 -25.34499931   5246451.000
 -25.29750061   5246727.500
 -25.25000000   5247006.500
 -25.20249939   5247283.000
 -25.15500069   5247560.500
 -25.10750008   5247837.000
 -25.05999947   5248110.000
 -25.01250076   5248383.000
 -24.96500015   5248652.500
 -24.91749954   5248922.000
 -24.87000084   5249188.500
 -24.82250023   5249456.000
 -24.77499962   5249722.500
 -24.72750092   5249988.500
 -24.68000031   5250257.000
 -24.63249969   5250524.500
 -24.58499908   5250796.000
 -24.53750038   5251066.500
 -24.48999977   5251337.500
 -24.44249916   5251612.000
 -24.39500046   5251886.000
 -24.34749985   5252162.000
 -24.29999924   5252438.500
 -24.25250053   5252714.000
 -24.20499992   5252992.500
 -24.15749931   5253268.500
 -24.11000061   5253544.500
 -24.06250000   5253821.500
 -24.01499939   5254097.500
 -23.96750069   5254373.500
 -23.92000008   5254650.500
 -23.87249947   5254925.500
 -23.82500076   5255200.500
 -23.77750015   5255476.500
 -23.72999954   5255749.500
 -23.68250084   5256024.000
 -23.63500023   5256296.000
 -23.58749962   5256569.000
 -23.54000092   5256840.000
 -23.49250031   5257111.000
 -23.44499969   5257383.000
 -23.39749908   5257654.500
 -23.35000038   5257926.500
 -23.30249977   5258200.500
 -23.25499916   5258474.500
 -23.20750046   5258749.500
 -23.15999985   5259025.000
 -23.11249924   5259302.500
 -23.06500053   5259579.500
 -23.01749992   5259858.500
 -22.96999931   5260133.500
 -22.92250061   5260410.000
 -22.87500000   5260686.500
 -22.82749939   5260960.500
 -22.78000069   5261234.500
 -22.73250008   5261507.000
 -22.68499947   5261777.500
 -22.63750076   5262045.000
 -22.59000015   5262312.500
 -22.54249954   5262578.500
 -22.49500084   5262844.000
 -22.44750023   5263109.000
 -22.39999962   5263376.000
 -22.35250092   5263643.000
 -22.30500031   5263913.000
 -22.25749969   5264183.500
 -22.20999908   5264457.500
 -22.16250038   5264733.000
 -22.11499977   5265011.500
 -22.06749916   5265290.000
 -22.02000046   5265568.500
 -21.97249985   5265847.000
 -21.92499924   5266126.500
 -21.87750053   5266404.500
 -21.82999992   5266681.500
 -21.78249931   5266958.500
 -21.73500061   5267233.000
 -21.68750000   5267507.000
 -21.63999939   5267777.500
 -21.59250069   5268048.500
 -21.54500008   5268317.000
 -21.49749947   5268583.500
 -21.45000076   5268849.000
 -21.40250015   5269115.000
 -21.35499954   5269379.000
 -21.30750084   5269645.500
 -21.26000023   5269912.000
 -21.21249962   5270179.500
 -21.16500092   5270449.500
 -21.11750031   5270721.000
 -21.06999969   5270994.000
 -21.02249908   5271268.500
 -20.97500038   5271544.500
 -20.92749977   5271821.000
 -20.87999916   5272097.000
 -20.83250046   5272373.500
 -20.78499985   5272650.000
 -20.73749924   5272924.500
 -20.69000053   5273198.500
 -20.64249992   5273471.000
 -20.59499931   5273742.500
 -20.54750061   5274011.000
 -20.50000000   5274278.000
 -20.45249939   5274543.000
 -20.40500069   5274807.000
 -20.35750008   5275070.000
 -20.30999947   5275332.500
 -20.26250076   5275596.500
 -20.21500015   5275861.000
 -20.16749954   5276126.000
 -20.12000084   5276393.500
 -20.07250023   5276661.500
 -20.02499962   5276932.500
 -19.97750092   5277202.000
 -19.93000031   5277474.000
 -19.88249969   5277745.000
 -19.83499908   5278015.000
 -19.78750038   5278285.000
 -19.73999977   5278556.500
 -19.69249916   5278825.000
 -19.64500046   5279094.500
 -19.59749985   5279363.500
 -19.54999924   5279632.000
 -19.50250053   5279899.500
 -19.45499992   5280167.000
 -19.40749931   5280434.500
 -19.36000061   5280701.000
 -19.31250000   5280966.000
 -19.26499939   5281230.500
 -19.21750069   5281495.000
 -19.17000008   5281760.500
 -19.12249947   5282026.000
 -19.07500076   5282291.500
 -19.02750015   5282557.000
 -18.97999954   5282821.000
 -18.93250084   5283086.500
 -18.88500023   5283351.500
 -18.83749962   5283616.500
 -18.79000092   5283883.500
 -18.74250031   5284149.000
 -18.69499969   5284415.500
 -18.64749908   5284684.000
 -18.60000038   5284954.000
 -18.55249977   5285224.000
 -18.50499916   5285496.500
 -18.45750046   5285769.000
 -18.40999985   5286041.500
 -18.36249924   5286312.500
 -18.31500053   NAN
 -18.26749992   NAN
 -18.21999931   NAN
 -18.17250061   NAN
 -18.12500000   NAN
 -18.07749939   NAN
 -18.03000069   NAN
 -17.98250008   NAN
 -17.93499947   NAN
 -17.88750076   NAN
 -17.84000015   NAN
 -17.79249954   NAN
 -17.74500084   NAN
 -17.69750023   NAN
 -17.64999962   NAN
 -17.60250092   NAN
 -17.55500031   NAN
 -17.50749969   NAN
 -17.45999908   NAN
 -17.41250038   NAN
 -17.36499977   NAN
 -17.31749916   NAN
 -17.27000046   NAN
 -17.22249985   NAN
 -17.17499924   NAN
 -17.12750053   NAN
 -17.07999992   NAN
 -17.03249931   NAN
 -16.98500061   NAN
 -16.93750000   NAN
 -16.88999939   NAN
 -16.84250069   NAN
 -16.79500008   NAN
 -16.74749947   NAN
 -16.70000076   NAN
 -16.65250015   NAN
 -16.60499954   NAN
 -16.55750084   NAN
 -16.51000023   NAN
 -16.46249962   NAN
 -16.41500092   NAN
 -16.36750031   NAN
 -16.31999969   NAN
 -16.27249908   NAN
 -16.22500038   NAN
 -16.17749977   NAN
 -16.12999916   NAN
 -16.08250046   NAN
 -16.03499985   NAN
 -15.98750019   NAN
 -15.93999958   NAN
 -15.89249992   NAN
 -15.84500027   NAN
 -15.79749966   NAN
