 -30.00000000   9218300.000
 -29.95249939   9218770.000
 -29.90500069   9219240.000
 -29.85750008   9219708.000
 -29.80999947   9220177.000
 -29.76250076   9220646.000
 -29.71500015   9221116.000
 -29.66749954   9221586.000
 -29.62000084   9222057.000
 -29.57250023   9222528.000
 -29.52499962   9222999.000
 -29.47750092   9223471.000
 -29.43000031   9223942.000
 -29.38249969   9224413.000
 -29.33499908   9224884.000
 -29.28750038   9225354.000
 -29.23999977   9225825.000
 -29.19249916   9226297.000
 -29.14500046   9226769.000
 -29.09749985   9227239.000
 -29.04999924   9227711.000
 -29.00250053   9228183.000
 -28.95499992   9228654.000
 -28.90749931   9229125.000
 -28.86000061   9229595.000
 -28.81250000   9230066.000
 -28.76499939   9230534.000
 -28.71750069   9231003.000
 -28.67000008   9231473.000
 -28.62249947   9231941.000
 -28.57500076   9232411.000
 -28.52750015   9232882.000
 -28.47999954   9233355.000
 -28.43250084   9233829.000
 -28.38500023   9234303.000
 -28.33749962   9234776.000
 -28.29000092   9235250.000
 -28.24250031   9235723.000
 -28.19499969   9236195.000
 -28.14749908   9236665.000
 -28.10000038   9237135.000
 -28.05249977   9237603.000
 -28.00499916   9238071.000
 -27.95750046   9238538.000
 -27.90999985   9239005.000
 -27.86249924   9239474.000
 -27.81500053   9239943.000
 -27.76749992   9240415.000
 -27.71999931   9240886.000
 -27.67250061   9241357.000
 -27.62500000   9241829.000
 -27.57749939   9242301.000
 -27.53000069   9242771.000
 -27.48250008   9243243.000
 -27.43499947   9243712.000
 -27.38750076   9244182.000
 -27.34000015   9244650.000
 -27.29249954   9245118.000
 -27.24500084   9245588.000
 -27.19750023   9246058.000
 -27.14999962   9246527.000
 -27.10250092   9246996.000
 -27.05500031   9247465.000
 -27.00749969   9247934.000
 -26.95999908   9248401.000
 -26.91250038   9248869.000
 -26.86499977   9249334.000
 -26.81749916   9249802.000
 -26.77000046   9250270.000
 -26.72249985   9250738.000
 -26.67499924   9251206.000
 -26.62750053   9251676.000
 -26.57999992   9252147.000
 -26.53249931   9252617.000
 -26.48500061   9253088.000
 -26.43750000   9253557.000
 -26.38999939   9254027.000
 -26.34250069   9254496.000
 -26.29500008   9254963.000
 -26.24749947   9255430.000
 -26.20000076   9255895.000
 -26.15250015   9256363.000
 -26.10499954   9256831.000
 -26.05750084   9257300.000
 -26.01000023   9257769.000
 -25.96249962   9258239.000
 -25.91500092   9258709.000
 -25.86750031   9259179.000
 -25.81999969   9259648.000
 -25.77249908   9260116.000
 -25.72500038   9260584.000
 -25.67749977   9261051.000
 -25.62999916   9261518.000
 -25.58250046   9261986.000
 -25.53499985   9262455.000
 -25.48749924   9262924.000
 -25.44000053   9263396.000
 -25.39249992   9263867.000
 -25.34499931   9264340.000
 -25.29750061   9264813.000
 -25.25000000   9265284.000
 -25.20249939   9265755.000
 -25.15500069   9266223.000
 -25.10750008   9266692.000
 -25.05999947   9267158.000
 -25.01250076   9267623.000
 -24.96500015   9268089.000
 -24.91749954   9268554.000
 -24.87000084   9269021.000
 -24.82250023   9269488.000
 -24.77499962   9269956.000
 -24.72750092   9270426.000
 -24.68000031   9270897.000
 -24.63249969   9271368.000
 -24.58499908   9271840.000
 -24.53750038   9272312.000
 -24.48999977   9272782.000
 -24.44249916   9273252.000
 -24.39500046   9273720.000
 -24.34749985   9274189.000
 -24.29999924   9274656.000
 -24.25250053   9275124.000
 -24.20499992   9275593.000
 -24.15749931   9276063.000
 -24.11000061   9276533.000
 -24.06250000   9277003.000
 -24.01499939   9277474.000
 -23.96750069   9277943.000
 -23.92000008   9278414.000
 -23.87249947   9278883.000
 -23.82500076   9279351.000
 -23.77750015   9279819.000
 -23.72999954   9280288.000
 -23.68250084   9280757.000
 -23.63500023   9281228.000
 -23.58749962   9281701.000
 -23.54000092   9282175.000
 -23.49250031   9282651.000
 -23.44499969   9283127.000
 -23.39749908   9283602.000
 -23.35000038   9284076.000
 -23.30249977   9284548.000
 -23.25499916   9285018.000
 -23.20750046   9285486.000
 -23.15999985   9285956.000
 -23.11249924   9286421.000
 -23.06500053   9286891.000
 -23.01749992   9287358.000
 -22.96999931   9287829.000
 -22.92250061   9288299.000
 -22.87500000   9288770.000
 -22.82749939   9289240.000
 -22.78000069   9289711.000
 -22.73250008   9290180.000
 -22.68499947   9290647.000
 -22.63750076   9291113.000
 -22.59000015   9291581.000
 -22.54249954   9292047.000
 -22.49500084   9292514.000
 -22.44750023   9292982.000
 -22.39999962   9293449.000
 -22.35250092   9293917.000
 -22.30500031   9294387.000
 -22.25749969   9294857.000
 -22.20999908   9295326.000
 -22.16250038   9295795.000
 -22.11499977   9296263.000
 -22.06749916   9296730.000
 -22.02000046   9297199.000
 -21.97249985   9297667.000
 -21.92499924   9298136.000
 -21.87750053   9298608.000
 -21.82999992   9299080.000
 -21.78249931   9299553.000
 -21.73500061   9300027.000
 -21.68750000   9300501.000
 -21.63999939   9300974.000
 -21.59250069   9301446.000
 -21.54500008   9301916.000
 -21.49749947   9302385.000
 -21.45000076   9302854.000
 -21.40250015   9303322.000
 -21.35499954   9303790.000
 -21.30750084   9304258.000
 -21.26000023   9304729.000
 -21.21249962   9305199.000
 -21.16500092   9305671.000
 -21.11750031   9306145.000
 -21.06999969   9306617.000
 -21.02249908   9307091.000
 -20.97500038   9307564.000
 -20.92749977   9308035.000
 -20.87999916   9308508.000
 -20.83250046   9308979.000
 -20.78499985   9309450.000
 -20.73749924   9309923.000
 -20.69000053   9310396.000
 -20.64249992   9310868.000
 -20.59499931   9311342.000
 -20.54750061   9311816.000
 -20.50000000   9312291.000
 -20.45249939   9312766.000
 -20.40500069   9313239.000
 -20.35750008   9313712.000
 -20.30999947   9314186.000
 -20.26250076   9314659.000
 -20.21500015   9315130.000
 -20.16749954   9315601.000
 -20.12000084   9316072.000
 -20.07250023   9316541.000
 -20.02499962   9317011.000
 -19.97750092   9317480.000
 -19.93000031   9317950.000
 -19.88249969   9318420.000
 -19.83499908   9318893.000
 -19.78750038   9319364.000
 -19.73999977   9319835.000
 -19.69249916   9320304.000
 -19.64500046   9320773.000
 -19.59749985   9321242.000
 -19.54999924   9321710.000
 -19.50250053   9322180.000
 -19.45499992   9322649.000
 -19.40749931   9323120.000
 -19.36000061   9323595.000
 -19.31250000   9324069.000
 -19.26499939   9324545.000
 -19.21750069   9325021.000
 -19.17000008   9325496.000
 -19.12249947   9325969.000
 -19.07500076   9326441.000
 -19.02750015   9326911.000
 -18.97999954   9327379.000
 -18.93250084   9327847.000
 -18.88500023   9328317.000
 -18.83749962   9328787.000
 -18.79000092   9329261.000
 -18.74250031   9329736.000
 -18.69499969   9330212.000
 -18.64749908   9330689.000
 -18.60000038   9331165.000
 -18.55249977   9331636.000
 -18.50499916   9332106.000
 -18.45750046   9332572.000
 -18.40999985   9333036.000
 -18.36249924   9333496.000
 -18.31500053   NAN
 -18.26749992   NAN
 -18.21999931   NAN
 -18.17250061   NAN
 -18.12500000   NAN
 -18.07749939   NAN
 -18.03000069   NAN
 -17.98250008   NAN
 -17.93499947   NAN
 -17.88750076   NAN
 -17.84000015   NAN
 -17.79249954   NAN
 -17.74500084   NAN
 -17.69750023   NAN
 -17.64999962   NAN
 -17.60250092   NAN
 -17.55500031   NAN
 -17.50749969   NAN
 -17.45999908   NAN
 -17.41250038   NAN
 -17.36499977   NAN
 -17.31749916   NAN
 -17.27000046   NAN
 -17.22249985   NAN
 -17.17499924   NAN
 -17.12750053   NAN
 -17.07999992   NAN
 -17.03249931   NAN
 -16.98500061   NAN
 -16.93750000   NAN
 -16.88999939   NAN
 -16.84250069   NAN
 -16.79500008   NAN
 -16.74749947   NAN
 -16.70000076   NAN
 -16.65250015   NAN
 -16.60499954   NAN
 -16.55750084   NAN
 -16.51000023   NAN
 -16.46249962   NAN
 -16.41500092   NAN
 -16.36750031   NAN
 -16.31999969   NAN
 -16.27249908   NAN
 -16.22500038   NAN
 -16.17749977   NAN
 -16.12999916   NAN
 -16.08250046   NAN
 -16.03499985   NAN
 -15.98750019   NAN
 -15.93999958   NAN
 -15.89249992   NAN
 -15.84500027   NAN
 -15.79749966   NAN
