 -30.00000000   -3091607.750
 -29.95249939   -3091766.000
 -29.90500069   -3091926.750
 -29.85750008   -3092088.750
 -29.80999947   -3092250.250
 -29.76250076   -3092412.500
 -29.71500015   -3092574.000
 -29.66749954   -3092735.250
 -29.62000084   -3092897.000
 -29.57250023   -3093057.250
 -29.52499962   -3093216.000
 -29.47750092   -3093374.000
 -29.43000031   -3093531.500
 -29.38249969   -3093689.000
 -29.33499908   -3093846.500
 -29.28750038   -3094002.250
 -29.23999977   -3094158.500
 -29.19249916   -3094314.750
 -29.14500046   -3094471.750
 -29.09749985   -3094628.000
 -29.04999924   -3094785.000
 -29.00250053   -3094942.750
 -28.95499992   -3095100.250
 -28.90749931   -3095257.750
 -28.86000061   -3095413.500
 -28.81250000   -3095572.000
 -28.76499939   -3095727.750
 -28.71750069   -3095884.500
 -28.67000008   -3096039.750
 -28.62249947   -3096195.750
 -28.57500076   -3096351.500
 -28.52750015   -3096508.500
 -28.47999954   -3096665.000
 -28.43250084   -3096822.750
 -28.38500023   -3096979.250
 -28.33749962   -3097138.500
 -28.29000092   -3097297.250
 -28.24250031   -3097456.750
 -28.19499969   -3097617.000
 -28.14749908   -3097775.750
 -28.10000038   -3097936.500
 -28.05249977   -3098096.750
 -28.00499916   -3098255.000
 -27.95750046   -3098414.000
 -27.90999985   -3098572.750
 -27.86249924   -3098731.250
 -27.81500053   -3098889.000
 -27.76749992   -3099044.750
 -27.71999931   -3099202.500
 -27.67250061   -3099359.000
 -27.62500000   -3099516.250
 -27.57749939   -3099673.250
 -27.53000069   -3099829.500
 -27.48250008   -3099986.750
 -27.43499947   -3100143.750
 -27.38750076   -3100301.000
 -27.34000015   -3100457.000
 -27.29249954   -3100613.750
 -27.24500084   -3100771.250
 -27.19750023   -3100928.500
 -27.14999962   -3101085.500
 -27.10250092   -3101242.000
 -27.05500031   -3101399.750
 -27.00749969   -3101557.750
 -26.95999908   -3101714.750
 -26.91250038   -3101873.750
 -26.86499977   -3102032.250
 -26.81749916   -3102190.000
 -26.77000046   -3102347.250
 -26.72249985   -3102504.000
 -26.67499924   -3102661.500
 -26.62750053   -3102818.500
 -26.57999992   -3102975.500
 -26.53249931   -3103133.250
 -26.48500061   -3103292.750
 -26.43750000   -3103451.500
 -26.38999939   -3103611.000
 -26.34250069   -3103769.750
 -26.29500008   -3103929.500
 -26.24749947   -3104088.000
 -26.20000076   -3104247.250
 -26.15250015   -3104405.000
 -26.10499954   -3104562.250
 -26.05750084   -3104717.250
 -26.01000023   -3104874.250
 -25.96249962   -3105030.250
 -25.91500092   -3105186.000
 -25.86750031   -3105342.250
 -25.81999969   -3105498.750
 -25.77249908   -3105654.500
 -25.72500038   -3105810.750
 -25.67749977   -3105967.000
 -25.62999916   -3106124.500
 -25.58250046   -3106280.500
 -25.53499985   -3106436.250
 -25.48749924   -3106592.000
 -25.44000053   -3106747.500
 -25.39249992   -3106904.500
 -25.34499931   -3107061.500
 -25.29750061   -3107219.500
 -25.25000000   -3107376.750
 -25.20249939   -3107535.250
 -25.15500069   -3107692.500
 -25.10750008   -3107849.500
 -25.05999947   -3108008.000
 -25.01250076   -3108165.250
 -24.96500015   -3108322.750
 -24.91749954   -3108478.500
 -24.87000084   -3108636.500
 -24.82250023   -3108793.500
 -24.77499962   -3108951.500
 -24.72750092   -3109107.750
 -24.68000031   -3109265.750
 -24.63249969   -3109422.750
 -24.58499908   -3109579.750
 -24.53750038   -3109737.000
 -24.48999977   -3109893.250
 -24.44249916   -3110050.500
 -24.39500046   -3110207.000
 -24.34749985   -3110364.750
 -24.29999924   -3110522.250
 -24.25250053   -3110678.250
 -24.20499992   -3110836.000
 -24.15749931   -3110994.250
 -24.11000061   -3111151.000
 -24.06250000   -3111309.500
 -24.01499939   -3111466.750
 -23.96750069   -3111625.000
 -23.92000008   -3111782.250
 -23.87249947   -3111940.000
 -23.82500076   -3112097.750
 -23.77750015   -3112255.250
 -23.72999954   -3112413.000
 -23.68250084   -3112571.750
 -23.63500023   -3112729.000
 -23.58749962   -3112886.250
 -23.54000092   -3113042.250
 -23.49250031   -3113197.750
 -23.44499969   -3113353.750
 -23.39749908   -3113509.000
 -23.35000038   -3113663.500
 -23.30249977   -3113820.500
 -23.25499916   -3113976.500
 -23.20750046   -3114134.500
 -23.15999985   -3114292.750
 -23.11249924   -3114450.750
 -23.06500053   -3114610.250
 -23.01749992   -3114769.250
 -22.96999931   -3114927.000
 -22.92250061   -3115084.500
 -22.87500000   -3115243.250
 -22.82749939   -3115401.750
 -22.78000069   -3115557.750
 -22.73250008   -3115716.000
 -22.68499947   -3115872.500
 -22.63750076   -3116029.000
 -22.59000015   -3116186.750
 -22.54249954   -3116345.250
 -22.49500084   -3116501.500
 -22.44750023   -3116657.750
 -22.39999962   -3116814.000
 -22.35250092   -3116969.500
 -22.30500031   -3117123.500
 -22.25749969   -3117278.750
 -22.20999908   -3117434.750
 -22.16250038   -3117590.750
 -22.11499977   -3117748.500
 -22.06749916   -3117906.000
 -22.02000046   -3118066.500
 -21.97249985   -3118227.750
 -21.92499924   -3118389.000
 -21.87750053   -3118551.250
 -21.82999992   -3118713.000
 -21.78249931   -3118873.750
 -21.73500061   -3119034.500
 -21.68750000   -3119192.750
 -21.63999939   -3119347.500
 -21.59250069   -3119502.000
 -21.54500008   -3119655.750
 -21.49749947   -3119808.250
 -21.45000076   -3119962.500
 -21.40250015   -3120115.500
 -21.35499954   -3120269.500
 -21.30750084   -3120424.500
 -21.26000023   -3120580.000
 -21.21249962   -3120738.500
 -21.16500092   -3120896.250
 -21.11750031   -3121055.000
 -21.06999969   -3121213.750
 -21.02249908   -3121375.500
 -20.97500038   -3121537.000
 -20.92749977   -3121698.750
 -20.87999916   -3121860.250
 -20.83250046   -3122021.000
 -20.78499985   -3122181.750
 -20.73749924   -3122340.250
 -20.69000053   -3122496.000
 -20.64249992   -3122650.000
 -20.59499931   -3122802.250
 -20.54750061   -3122954.500
 -20.50000000   -3123105.750
 -20.45249939   -3123257.500
 -20.40500069   -3123409.250
 -20.35750008   -3123562.500
 -20.30999947   -3123716.750
 -20.26250076   -3123871.500
 -20.21500015   -3124027.000
 -20.16749954   -3124182.500
 -20.12000084   -3124340.000
 -20.07250023   -3124495.250
 -20.02499962   -3124652.250
 -19.97750092   -3124810.250
 -19.93000031   -3124967.250
 -19.88249969   -3125125.500
 -19.83499908   -3125285.750
 -19.78750038   -3125444.250
 -19.73999977   -3125603.500
 -19.69249916   -3125762.750
 -19.64500046   -3125920.250
 -19.59749985   -3126078.000
 -19.54999924   -3126235.500
 -19.50250053   -3126390.750
 -19.45499992   -3126547.000
 -19.40749931   -3126702.250
 -19.36000061   -3126858.500
 -19.31250000   -3127013.000
 -19.26499939   -3127171.000
 -19.21750069   -3127327.250
 -19.17000008   -3127482.500
 -19.12249947   -3127638.500
 -19.07500076   -3127793.750
 -19.02750015   -3127949.250
 -18.97999954   -3128104.250
 -18.93250084   -3128258.250
 -18.88500023   -3128414.500
 -18.83749962   -3128571.000
 -18.79000092   -3128727.500
 -18.74250031   -3128886.250
 -18.69499969   -3129045.500
 -18.64749908   -3129205.500
 -18.60000038   -3129365.500
 -18.55249977   -3129524.250
 -18.50499916   -3129684.750
 -18.45750046   -3129842.750
 -18.40999985   -3129999.000
 -18.36249924   -3130156.500
 -18.31500053   NAN
 -18.26749992   NAN
 -18.21999931   NAN
 -18.17250061   NAN
 -18.12500000   NAN
 -18.07749939   NAN
 -18.03000069   NAN
 -17.98250008   NAN
 -17.93499947   NAN
 -17.88750076   NAN
 -17.84000015   NAN
 -17.79249954   NAN
 -17.74500084   NAN
 -17.69750023   NAN
 -17.64999962   NAN
 -17.60250092   NAN
 -17.55500031   NAN
 -17.50749969   NAN
 -17.45999908   NAN
 -17.41250038   NAN
 -17.36499977   NAN
 -17.31749916   NAN
 -17.27000046   NAN
 -17.22249985   NAN
 -17.17499924   NAN
 -17.12750053   NAN
 -17.07999992   NAN
 -17.03249931   NAN
 -16.98500061   NAN
 -16.93750000   NAN
 -16.88999939   NAN
 -16.84250069   NAN
 -16.79500008   NAN
 -16.74749947   NAN
 -16.70000076   NAN
 -16.65250015   NAN
 -16.60499954   NAN
 -16.55750084   NAN
 -16.51000023   NAN
 -16.46249962   NAN
 -16.41500092   NAN
 -16.36750031   NAN
 -16.31999969   NAN
 -16.27249908   NAN
 -16.22500038   NAN
 -16.17749977   NAN
 -16.12999916   NAN
 -16.08250046   NAN
 -16.03499985   NAN
 -15.98750019   NAN
 -15.93999958   NAN
 -15.89249992   NAN
 -15.84500027   NAN
 -15.79749966   NAN
