 -30.00000000   -6072225.000
 -29.95249939   -6072537.000
 -29.90500069   -6072849.000
 -29.85750008   -6073165.000
 -29.80999947   -6073481.000
 -29.76250076   -6073798.500
 -29.71500015   -6074117.000
 -29.66749954   -6074434.500
 -29.62000084   -6074752.000
 -29.57250023   -6075069.000
 -29.52499962   -6075383.500
 -29.47750092   -6075697.500
 -29.43000031   -6076010.000
 -29.38249969   -6076321.000
 -29.33499908   -6076630.000
 -29.28750038   -6076939.500
 -29.23999977   -6077249.000
 -29.19249916   -6077559.000
 -29.14500046   -6077869.000
 -29.09749985   -6078180.500
 -29.04999924   -6078490.000
 -29.00250053   -6078803.000
 -28.95499992   -6079119.000
 -28.90749931   -6079433.500
 -28.86000061   -6079750.500
 -28.81250000   -6080068.000
 -28.76499939   -6080385.000
 -28.71750069   -6080704.000
 -28.67000008   -6081023.000
 -28.62249947   -6081342.000
 -28.57500076   -6081661.000
 -28.52750015   -6081977.500
 -28.47999954   -6082294.000
 -28.43250084   -6082609.000
 -28.38500023   -6082921.500
 -28.33749962   -6083232.500
 -28.29000092   -6083543.000
 -28.24250031   -6083852.000
 -28.19499969   -6084157.500
 -28.14749908   -6084464.500
 -28.10000038   -6084771.000
 -28.05249977   -6085076.000
 -28.00499916   -6085382.500
 -27.95750046   -6085690.500
 -27.90999985   -6085999.500
 -27.86249924   -6086309.000
 -27.81500053   -6086620.500
 -27.76749992   -6086933.000
 -27.71999931   -6087249.500
 -27.67250061   -6087565.000
 -27.62500000   -6087881.500
 -27.57749939   -6088198.500
 -27.53000069   -6088516.000
 -27.48250008   -6088833.500
 -27.43499947   -6089151.000
 -27.38750076   -6089465.000
 -27.34000015   -6089778.000
 -27.29249954   -6090091.000
 -27.24500084   -6090399.500
 -27.19750023   -6090707.500
 -27.14999962   -6091015.000
 -27.10250092   -6091321.500
 -27.05500031   -6091626.500
 -27.00749969   -6091932.000
 -26.95999908   -6092238.500
 -26.91250038   -6092545.500
 -26.86499977   -6092852.000
 -26.81749916   -6093160.000
 -26.77000046   -6093470.500
 -26.72249985   -6093781.500
 -26.67499924   -6094094.000
 -26.62750053   -6094408.000
 -26.57999992   -6094723.000
 -26.53249931   -6095038.500
 -26.48500061   -6095355.500
 -26.43750000   -6095672.500
 -26.38999939   -6095991.000
 -26.34250069   -6096307.500
 -26.29500008   -6096623.000
 -26.24749947   -6096937.000
 -26.20000076   -6097245.000
 -26.15250015   -6097554.500
 -26.10499954   -6097860.000
 -26.05750084   -6098165.500
 -26.01000023   -6098468.000
 -25.96249962   -6098772.000
 -25.91500092   -6099077.000
 -25.86750031   -6099383.000
 -25.81999969   -6099690.000
 -25.77249908   -6100000.500
 -25.72500038   -6100314.000
 -25.67749977   -6100625.000
 -25.62999916   -6100940.000
 -25.58250046   -6101253.000
 -25.53499985   -6101567.000
 -25.48749924   -6101879.000
 -25.44000053   -6102191.500
 -25.39249992   -6102503.500
 -25.34499931   -6102813.000
 -25.29750061   -6103125.000
 -25.25000000   -6103435.500
 -25.20249939   -6103746.500
 -25.15500069   -6104057.500
 -25.10750008   -6104368.000
 -25.05999947   -6104675.000
 -25.01250076   -6104983.000
 -24.96500015   -6105290.500
 -24.91749954   -6105598.500
 -24.87000084   -6105904.500
 -24.82250023   -6106210.500
 -24.77499962   -6106517.000
 -24.72750092   -6106825.000
 -24.68000031   -6107135.000
 -24.63249969   -6107445.000
 -24.58499908   -6107757.500
 -24.53750038   -6108071.000
 -24.48999977   -6108383.500
 -24.44249916   -6108697.000
 -24.39500046   -6109013.000
 -24.34749985   -6109328.500
 -24.29999924   -6109643.500
 -24.25250053   -6109960.000
 -24.20499992   -6110272.500
 -24.15749931   -6110586.000
 -24.11000061   -6110897.000
 -24.06250000   -6111206.500
 -24.01499939   -6111512.000
 -23.96750069   -6111818.000
 -23.92000008   -6112120.500
 -23.87249947   -6112423.000
 -23.82500076   -6112725.000
 -23.77750015   -6113027.500
 -23.72999954   -6113330.500
 -23.68250084   -6113633.500
 -23.63500023   -6113939.000
 -23.58749962   -6114245.000
 -23.54000092   -6114552.500
 -23.49250031   -6114860.500
 -23.44499969   -6115167.500
 -23.39749908   -6115476.500
 -23.35000038   -6115781.500
 -23.30249977   -6116089.000
 -23.25499916   -6116395.500
 -23.20750046   -6116702.500
 -23.15999985   -6117010.000
 -23.11249924   -6117318.000
 -23.06500053   -6117626.500
 -23.01749992   -6117936.000
 -22.96999931   -6118243.500
 -22.92250061   -6118552.000
 -22.87500000   -6118861.000
 -22.82749939   -6119169.500
 -22.78000069   -6119476.500
 -22.73250008   -6119782.000
 -22.68499947   -6120088.500
 -22.63750076   -6120394.000
 -22.59000015   -6120701.000
 -22.54249954   -6121005.500
 -22.49500084   -6121310.500
 -22.44750023   -6121615.500
 -22.39999962   -6121920.500
 -22.35250092   -6122225.000
 -22.30500031   -6122531.000
 -22.25749969   -6122837.000
 -22.20999908   -6123142.000
 -22.16250038   -6123450.000
 -22.11499977   -6123761.000
 -22.06749916   -6124071.000
 -22.02000046   -6124383.000
 -21.97249985   -6124694.000
 -21.92499924   -6125003.500
 -21.87750053   -6125313.000
 -21.82999992   -6125620.500
 -21.78249931   -6125925.500
 -21.73500061   -6126227.000
 -21.68750000   -6126530.000
 -21.63999939   -6126830.000
 -21.59250069   -6127131.000
 -21.54500008   -6127433.000
 -21.49749947   -6127738.500
 -21.45000076   -6128046.000
 -21.40250015   -6128352.000
 -21.35499954   -6128660.000
 -21.30750084   -6128970.500
 -21.26000023   -6129278.000
 -21.21249962   -6129584.500
 -21.16500092   -6129891.500
 -21.11750031   -6130195.500
 -21.06999969   -6130500.000
 -21.02249908   -6130804.000
 -20.97500038   -6131109.500
 -20.92749977   -6131413.500
 -20.87999916   -6131719.500
 -20.83250046   -6132025.000
 -20.78499985   -6132327.000
 -20.73749924   -6132632.500
 -20.69000053   -6132936.000
 -20.64249992   -6133240.500
 -20.59499931   -6133541.500
 -20.54750061   -6133845.000
 -20.50000000   -6134147.000
 -20.45249939   -6134448.500
 -20.40500069   NAN
 -20.35750008   NAN
 -20.30999947   NAN
 -20.26250076   NAN
 -20.21500015   NAN
 -20.16749954   NAN
 -20.12000084   NAN
 -20.07250023   NAN
 -20.02499962   NAN
 -19.97750092   NAN
 -19.93000031   NAN
 -19.88249969   NAN
 -19.83499908   NAN
 -19.78750038   NAN
 -19.73999977   NAN
 -19.69249916   NAN
 -19.64500046   NAN
 -19.59749985   NAN
 -19.54999924   NAN
 -19.50250053   NAN
 -19.45499992   NAN
 -19.40749931   NAN
 -19.36000061   NAN
 -19.31250000   NAN
 -19.26499939   NAN
 -19.21750069   NAN
 -19.17000008   NAN
 -19.12249947   NAN
 -19.07500076   NAN
 -19.02750015   NAN
 -18.97999954   NAN
 -18.93250084   NAN
 -18.88500023   NAN
 -18.83749962   NAN
 -18.79000092   NAN
 -18.74250031   NAN
 -18.69499969   NAN
 -18.64749908   NAN
 -18.60000038   NAN
 -18.55249977   NAN
 -18.50499916   NAN
 -18.45750046   NAN
 -18.40999985   NAN
 -18.36249924   NAN
 -18.31500053   NAN
 -18.26749992   NAN
 -18.21999931   NAN
 -18.17250061   NAN
 -18.12500000   NAN
 -18.07749939   NAN
 -18.03000069   NAN
 -17.98250008   NAN
 -17.93499947   NAN
 -17.88750076   NAN
 -17.84000015   NAN
 -17.79249954   NAN
 -17.74500084   NAN
 -17.69750023   NAN
 -17.64999962   NAN
 -17.60250092   NAN
 -17.55500031   NAN
 -17.50749969   NAN
 -17.45999908   NAN
 -17.41250038   NAN
 -17.36499977   NAN
 -17.31749916   NAN
 -17.27000046   NAN
 -17.22249985   NAN
 -17.17499924   NAN
 -17.12750053   NAN
 -17.07999992   NAN
 -17.03249931   NAN
 -16.98500061   NAN
 -16.93750000   NAN
 -16.88999939   NAN
 -16.84250069   NAN
 -16.79500008   NAN
 -16.74749947   NAN
 -16.70000076   NAN
 -16.65250015   NAN
 -16.60499954   NAN
 -16.55750084   NAN
 -16.51000023   NAN
 -16.46249962   NAN
 -16.41500092   NAN
 -16.36750031   NAN
 -16.31999969   NAN
 -16.27249908   NAN
 -16.22500038   NAN
 -16.17749977   NAN
 -16.12999916   NAN
 -16.08250046   NAN
 -16.03499985   NAN
 -15.98750019   NAN
 -15.93999958   NAN
 -15.89249992   NAN
 -15.84500027   NAN
 -15.79749966   NAN
