 -30.00000000   -2878029.000
 -29.95249939   -2878174.750
 -29.90500069   -2878321.000
 -29.85750008   -2878467.250
 -29.80999947   -2878612.500
 -29.76250076   -2878757.250
 -29.71500015   -2878903.250
 -29.66749954   -2879047.250
 -29.62000084   -2879191.750
 -29.57250023   -2879336.250
 -29.52499962   -2879480.000
 -29.47750092   -2879625.250
 -29.43000031   -2879769.500
 -29.38249969   -2879914.500
 -29.33499908   -2880059.250
 -29.28750038   -2880204.500
 -29.23999977   -2880348.500
 -29.19249916   -2880492.750
 -29.14500046   -2880637.500
 -29.09749985   -2880781.250
 -29.04999924   -2880925.500
 -29.00250053   -2881070.000
 -28.95499992   -2881213.000
 -28.90749931   -2881357.250
 -28.86000061   -2881500.750
 -28.81250000   -2881645.250
 -28.76499939   -2881789.500
 -28.71750069   -2881934.250
 -28.67000008   -2882077.750
 -28.62249947   -2882222.750
 -28.57500076   -2882367.000
 -28.52750015   -2882512.000
 -28.47999954   -2882657.250
 -28.43250084   -2882799.250
 -28.38500023   -2882943.750
 -28.33749962   -2883088.500
 -28.29000092   -2883230.250
 -28.24250031   -2883373.750
 -28.19499969   -2883518.250
 -28.14749908   -2883661.750
 -28.10000038   -2883804.750
 -28.05249977   -2883947.250
 -28.00499916   -2884090.750
 -27.95750046   -2884233.500
 -27.90999985   -2884378.250
 -27.86249924   -2884521.000
 -27.81500053   -2884666.250
 -27.76749992   -2884811.500
 -27.71999931   -2884956.750
 -27.67250061   -2885103.000
 -27.62500000   -2885247.000
 -27.57749939   -2885393.500
 -27.53000069   -2885540.000
 -27.48250008   -2885685.500
 -27.43499947   -2885830.750
 -27.38750076   -2885976.000
 -27.34000015   -2886121.750
 -27.29249954   -2886265.250
 -27.24500084   -2886410.000
 -27.19750023   -2886553.750
 -27.14999962   -2886699.000
 -27.10250092   -2886844.500
 -27.05500031   -2886989.750
 -27.00749969   -2887135.750
 -26.95999908   -2887281.750
 -26.91250038   -2887428.750
 -26.86499977   -2887576.250
 -26.81749916   -2887723.250
 -26.77000046   -2887871.000
 -26.72249985   -2888020.000
 -26.67499924   -2888166.500
 -26.62750053   -2888315.000
 -26.57999992   -2888462.500
 -26.53249931   -2888610.250
 -26.48500061   -2888754.000
 -26.43750000   -2888900.250
 -26.38999939   -2889045.500
 -26.34250069   -2889191.000
 -26.29500008   -2889337.500
 -26.24749947   -2889483.250
 -26.20000076   -2889629.500
 -26.15250015   -2889774.750
 -26.10499954   -2889922.750
 -26.05750084   -2890071.750
 -26.01000023   -2890217.750
 -25.96249962   -2890367.000
 -25.91500092   -2890515.250
 -25.86750031   -2890662.500
 -25.81999969   -2890809.750
 -25.77249908   -2890958.750
 -25.72500038   -2891105.000
 -25.67749977   -2891251.750
 -25.62999916   -2891398.500
 -25.58250046   -2891544.750
 -25.53499985   -2891691.500
 -25.48749924   -2891837.500
 -25.44000053   -2891984.250
 -25.39249992   -2892131.250
 -25.34499931   -2892278.750
 -25.29750061   -2892425.750
 -25.25000000   -2892574.750
 -25.20249939   -2892724.000
 -25.15500069   -2892873.250
 -25.10750008   -2893023.250
 -25.05999947   -2893174.000
 -25.01250076   -2893324.000
 -24.96500015   -2893474.000
 -24.91749954   -2893624.000
 -24.87000084   -2893774.250
 -24.82250023   -2893924.000
 -24.77499962   -2894075.500
 -24.72750092   -2894225.750
 -24.68000031   -2894377.750
 -24.63249969   -2894531.500
 -24.58499908   -2894683.250
 -24.53750038   -2894838.500
 -24.48999977   -2894991.750
 -24.44249916   -2895146.000
 -24.39500046   -2895299.250
 -24.34749985   -2895452.500
 -24.29999924   -2895606.250
 -24.25250053   -2895758.500
 -24.20499992   -2895910.750
 -24.15749931   -2896061.750
 -24.11000061   -2896213.500
 -24.06250000   -2896364.000
 -24.01499939   -2896515.500
 -23.96750069   -2896666.750
 -23.92000008   -2896816.500
 -23.87249947   -2896966.250
 -23.82500076   -2897117.250
 -23.77750015   -2897268.000
 -23.72999954   -2897420.250
 -23.68250084   -2897572.000
 -23.63500023   -2897723.500
 -23.58749962   -2897874.250
 -23.54000092   -2898026.000
 -23.49250031   -2898176.500
 -23.44499969   -2898327.750
 -23.39749908   -2898480.250
 -23.35000038   -2898630.250
 -23.30249977   -2898777.250
 -23.25499916   -2898928.000
 -23.20750046   -2899077.250
 -23.15999985   -2899224.750
 -23.11249924   -2899373.000
 -23.06500053   -2899519.000
 -23.01749992   -2899663.500
 -22.96999931   -2899810.000
 -22.92250061   -2899954.750
 -22.87500000   -2900097.500
 -22.82749939   -2900239.750
 -22.78000069   -2900383.250
 -22.73250008   -2900524.250
 -22.68499947   -2900666.250
 -22.63750076   -2900808.750
 -22.59000015   -2900949.750
 -22.54249954   -2901091.250
 -22.49500084   -2901233.000
 -22.44750023   -2901374.500
 -22.39999962   -2901515.000
 -22.35250092   -2901657.000
 -22.30500031   -2901798.750
 -22.25749969   -2901939.750
 -22.20999908   -2902078.750
 -22.16250038   -2902218.500
 -22.11499977   -2902358.750
 -22.06749916   -2902497.750
 -22.02000046   -2902635.500
 -21.97249985   -2902776.000
 -21.92499924   -2902916.000
 -21.87750053   -2903056.250
 -21.82999992   -2903198.500
 -21.78249931   -2903340.000
 -21.73500061   -2903482.000
 -21.68750000   -2903624.500
 -21.63999939   -2903766.500
 -21.59250069   -2903910.000
 -21.54500008   -2904052.250
 -21.49749947   -2904195.500
 -21.45000076   -2904338.500
 -21.40250015   -2904481.250
 -21.35499954   -2904623.250
 -21.30750084   -2904763.500
 -21.26000023   -2904904.250
 -21.21249962   -2905044.500
 -21.16500092   -2905187.500
 -21.11750031   -2905329.250
 -21.06999969   -2905470.500
 -21.02249908   -2905614.000
 -20.97500038   -2905757.250
 -20.92749977   -2905902.500
 -20.87999916   -2906049.750
 -20.83250046   -2906198.000
 -20.78499985   -2906348.750
 -20.73749924   -2906497.000
 -20.69000053   -2906647.000
 -20.64249992   -2906799.500
 -20.59499931   -2906949.750
 -20.54750061   -2907099.750
 -20.50000000   -2907250.250
 -20.45249939   -2907397.500
 -20.40500069   NAN
 -20.35750008   NAN
 -20.30999947   NAN
 -20.26250076   NAN
 -20.21500015   NAN
 -20.16749954   NAN
 -20.12000084   NAN
 -20.07250023   NAN
 -20.02499962   NAN
 -19.97750092   NAN
 -19.93000031   NAN
 -19.88249969   NAN
 -19.83499908   NAN
 -19.78750038   NAN
 -19.73999977   NAN
 -19.69249916   NAN
 -19.64500046   NAN
 -19.59749985   NAN
 -19.54999924   NAN
 -19.50250053   NAN
 -19.45499992   NAN
 -19.40749931   NAN
 -19.36000061   NAN
 -19.31250000   NAN
 -19.26499939   NAN
 -19.21750069   NAN
 -19.17000008   NAN
 -19.12249947   NAN
 -19.07500076   NAN
 -19.02750015   NAN
 -18.97999954   NAN
 -18.93250084   NAN
 -18.88500023   NAN
 -18.83749962   NAN
 -18.79000092   NAN
 -18.74250031   NAN
 -18.69499969   NAN
 -18.64749908   NAN
 -18.60000038   NAN
 -18.55249977   NAN
 -18.50499916   NAN
 -18.45750046   NAN
 -18.40999985   NAN
 -18.36249924   NAN
 -18.31500053   NAN
 -18.26749992   NAN
 -18.21999931   NAN
 -18.17250061   NAN
 -18.12500000   NAN
 -18.07749939   NAN
 -18.03000069   NAN
 -17.98250008   NAN
 -17.93499947   NAN
 -17.88750076   NAN
 -17.84000015   NAN
 -17.79249954   NAN
 -17.74500084   NAN
 -17.69750023   NAN
 -17.64999962   NAN
 -17.60250092   NAN
 -17.55500031   NAN
 -17.50749969   NAN
 -17.45999908   NAN
 -17.41250038   NAN
 -17.36499977   NAN
 -17.31749916   NAN
 -17.27000046   NAN
 -17.22249985   NAN
 -17.17499924   NAN
 -17.12750053   NAN
 -17.07999992   NAN
 -17.03249931   NAN
 -16.98500061   NAN
 -16.93750000   NAN
 -16.88999939   NAN
 -16.84250069   NAN
 -16.79500008   NAN
 -16.74749947   NAN
 -16.70000076   NAN
 -16.65250015   NAN
 -16.60499954   NAN
 -16.55750084   NAN
 -16.51000023   NAN
 -16.46249962   NAN
 -16.41500092   NAN
 -16.36750031   NAN
 -16.31999969   NAN
 -16.27249908   NAN
 -16.22500038   NAN
 -16.17749977   NAN
 -16.12999916   NAN
 -16.08250046   NAN
 -16.03499985   NAN
 -15.98750019   NAN
 -15.93999958   NAN
 -15.89249992   NAN
 -15.84500027   NAN
 -15.79749966   NAN
