 -30.00000000   8753651.000
 -29.95249939   8754097.000
 -29.90500069   8754542.000
 -29.85750008   8754988.000
 -29.80999947   8755433.000
 -29.76250076   8755878.000
 -29.71500015   8756322.000
 -29.66749954   8756766.000
 -29.62000084   8757209.000
 -29.57250023   8757652.000
 -29.52499962   8758097.000
 -29.47750092   8758541.000
 -29.43000031   8758984.000
 -29.38249969   8759430.000
 -29.33499908   8759875.000
 -29.28750038   8760322.000
 -29.23999977   8760767.000
 -29.19249916   8761213.000
 -29.14500046   8761659.000
 -29.09749985   8762103.000
 -29.04999924   8762547.000
 -29.00250053   8762992.000
 -28.95499992   8763436.000
 -28.90749931   8763880.000
 -28.86000061   8764323.000
 -28.81250000   8764765.000
 -28.76499939   8765206.000
 -28.71750069   8765648.000
 -28.67000008   8766090.000
 -28.62249947   8766531.000
 -28.57500076   8766972.000
 -28.52750015   8767414.000
 -28.47999954   8767855.000
 -28.43250084   8768296.000
 -28.38500023   8768737.000
 -28.33749962   8769178.000
 -28.29000092   8769619.000
 -28.24250031   8770061.000
 -28.19499969   8770503.000
 -28.14749908   8770945.000
 -28.10000038   8771387.000
 -28.05249977   8771830.000
 -28.00499916   8772274.000
 -27.95750046   8772719.000
 -27.90999985   8773162.000
 -27.86249924   8773605.000
 -27.81500053   8774050.000
 -27.76749992   8774494.000
 -27.71999931   8774939.000
 -27.67250061   8775385.000
 -27.62500000   8775829.000
 -27.57749939   8776272.000
 -27.53000069   8776715.000
 -27.48250008   8777157.000
 -27.43499947   8777598.000
 -27.38750076   8778039.000
 -27.34000015   8778480.000
 -27.29249954   8778918.000
 -27.24500084   8779358.000
 -27.19750023   8779800.000
 -27.14999962   8780243.000
 -27.10250092   8780688.000
 -27.05500031   8781135.000
 -27.00749969   8781584.000
 -26.95999908   8782034.000
 -26.91250038   8782486.000
 -26.86499977   8782938.000
 -26.81749916   8783389.000
 -26.77000046   8783840.000
 -26.72249985   8784290.000
 -26.67499924   8784739.000
 -26.62750053   8785185.000
 -26.57999992   8785629.000
 -26.53249931   8786073.000
 -26.48500061   8786515.000
 -26.43750000   8786955.000
 -26.38999939   8787397.000
 -26.34250069   8787841.000
 -26.29500008   8788282.000
 -26.24749947   8788725.000
 -26.20000076   8789171.000
 -26.15250015   8789614.000
 -26.10499954   8790059.000
 -26.05750084   8790507.000
 -26.01000023   8790952.000
 -25.96249962   8791400.000
 -25.91500092   8791847.000
 -25.86750031   8792294.000
 -25.81999969   8792741.000
 -25.77249908   8793188.000
 -25.72500038   8793636.000
 -25.67749977   8794079.000
 -25.62999916   8794524.000
 -25.58250046   8794965.000
 -25.53499985   8795408.000
 -25.48749924   8795847.000
 -25.44000053   8796285.000
 -25.39249992   8796723.000
 -25.34499931   8797159.000
 -25.29750061   8797592.000
 -25.25000000   8798026.000
 -25.20249939   8798461.000
 -25.15500069   8798897.000
 -25.10750008   8799333.000
 -25.05999947   8799771.000
 -25.01250076   8800208.000
 -24.96500015   8800649.000
 -24.91749954   8801091.000
 -24.87000084   8801533.000
 -24.82250023   8801976.000
 -24.77499962   8802421.000
 -24.72750092   8802862.000
 -24.68000031   8803304.000
 -24.63249969   8803747.000
 -24.58499908   8804189.000
 -24.53750038   8804629.000
 -24.48999977   8805070.000
 -24.44249916   8805508.000
 -24.39500046   8805946.000
 -24.34749985   8806384.000
 -24.29999924   8806820.000
 -24.25250053   8807257.000
 -24.20499992   8807694.000
 -24.15749931   8808129.000
 -24.11000061   8808568.000
 -24.06250000   8809007.000
 -24.01499939   8809448.000
 -23.96750069   8809892.000
 -23.92000008   8810339.000
 -23.87249947   8810786.000
 -23.82500076   8811237.000
 -23.77750015   8811689.000
 -23.72999954   8812140.000
 -23.68250084   8812592.000
 -23.63500023   8813042.000
 -23.58749962   8813489.000
 -23.54000092   8813932.000
 -23.49250031   8814374.000
 -23.44499969   8814812.000
 -23.39749908   8815247.000
 -23.35000038   8815679.000
 -23.30249977   8816108.000
 -23.25499916   8816536.000
 -23.20750046   8816966.000
 -23.15999985   8817396.000
 -23.11249924   8817827.000
 -23.06500053   8818261.000
 -23.01749992   8818696.000
 -22.96999931   8819133.000
 -22.92250061   8819572.000
 -22.87500000   8820013.000
 -22.82749939   8820456.000
 -22.78000069   8820899.000
 -22.73250008   8821344.000
 -22.68499947   8821789.000
 -22.63750076   8822235.000
 -22.59000015   8822682.000
 -22.54249954   8823129.000
 -22.49500084   8823576.000
 -22.44750023   8824023.000
 -22.39999962   8824468.000
 -22.35250092   8824913.000
 -22.30500031   8825358.000
 -22.25749969   8825799.000
 -22.20999908   8826240.000
 -22.16250038   8826678.000
 -22.11499977   8827114.000
 -22.06749916   8827551.000
 -22.02000046   8827989.000
 -21.97249985   8828428.000
 -21.92499924   8828870.000
 -21.87750053   8829314.000
 -21.82999992   8829761.000
 -21.78249931   8830209.000
 -21.73500061   8830661.000
 -21.68750000   8831113.000
 -21.63999939   8831566.000
 -21.59250069   8832020.000
 -21.54500008   8832471.000
 -21.49749947   8832924.000
 -21.45000076   8833374.000
 -21.40250015   8833825.000
 -21.35499954   8834274.000
 -21.30750084   8834722.000
 -21.26000023   8835166.000
 -21.21249962   8835612.000
 -21.16500092   8836056.000
 -21.11750031   8836497.000
 -21.06999969   8836937.000
 -21.02249908   8837375.000
 -20.97500038   8837812.000
 -20.92749977   8838246.000
 -20.87999916   8838684.000
 -20.83250046   8839121.000
 -20.78499985   8839559.000
 -20.73749924   8840001.000
 -20.69000053   8840444.000
 -20.64249992   8840892.000
 -20.59499931   8841343.000
 -20.54750061   8841798.000
 -20.50000000   8842255.000
 -20.45249939   8842711.000
 -20.40500069   NAN
 -20.35750008   NAN
 -20.30999947   NAN
 -20.26250076   NAN
 -20.21500015   NAN
 -20.16749954   NAN
 -20.12000084   NAN
 -20.07250023   NAN
 -20.02499962   NAN
 -19.97750092   NAN
 -19.93000031   NAN
 -19.88249969   NAN
 -19.83499908   NAN
 -19.78750038   NAN
 -19.73999977   NAN
 -19.69249916   NAN
 -19.64500046   NAN
 -19.59749985   NAN
 -19.54999924   NAN
 -19.50250053   NAN
 -19.45499992   NAN
 -19.40749931   NAN
 -19.36000061   NAN
 -19.31250000   NAN
 -19.26499939   NAN
 -19.21750069   NAN
 -19.17000008   NAN
 -19.12249947   NAN
 -19.07500076   NAN
 -19.02750015   NAN
 -18.97999954   NAN
 -18.93250084   NAN
 -18.88500023   NAN
 -18.83749962   NAN
 -18.79000092   NAN
 -18.74250031   NAN
 -18.69499969   NAN
 -18.64749908   NAN
 -18.60000038   NAN
 -18.55249977   NAN
 -18.50499916   NAN
 -18.45750046   NAN
 -18.40999985   NAN
 -18.36249924   NAN
 -18.31500053   NAN
 -18.26749992   NAN
 -18.21999931   NAN
 -18.17250061   NAN
 -18.12500000   NAN
 -18.07749939   NAN
 -18.03000069   NAN
 -17.98250008   NAN
 -17.93499947   NAN
 -17.88750076   NAN
 -17.84000015   NAN
 -17.79249954   NAN
 -17.74500084   NAN
 -17.69750023   NAN
 -17.64999962   NAN
 -17.60250092   NAN
 -17.55500031   NAN
 -17.50749969   NAN
 -17.45999908   NAN
 -17.41250038   NAN
 -17.36499977   NAN
 -17.31749916   NAN
 -17.27000046   NAN
 -17.22249985   NAN
 -17.17499924   NAN
 -17.12750053   NAN
 -17.07999992   NAN
 -17.03249931   NAN
 -16.98500061   NAN
 -16.93750000   NAN
 -16.88999939   NAN
 -16.84250069   NAN
 -16.79500008   NAN
 -16.74749947   NAN
 -16.70000076   NAN
 -16.65250015   NAN
 -16.60499954   NAN
 -16.55750084   NAN
 -16.51000023   NAN
 -16.46249962   NAN
 -16.41500092   NAN
 -16.36750031   NAN
 -16.31999969   NAN
 -16.27249908   NAN
 -16.22500038   NAN
 -16.17749977   NAN
 -16.12999916   NAN
 -16.08250046   NAN
 -16.03499985   NAN
 -15.98750019   NAN
 -15.93999958   NAN
 -15.89249992   NAN
 -15.84500027   NAN
 -15.79749966   NAN
