 -30.00000000   73137.83594
 -29.95249939   73143.16406
 -29.90500069   73150.98438
 -29.85750008   73159.86719
 -29.80999947   73167.85156
 -29.76250076   73177.95312
 -29.71500015   73185.47656
 -29.66749954   73195.19531
 -29.62000084   73201.38281
 -29.57250023   73206.06250
 -29.52499962   73206.99219
 -29.47750092   73208.66406
 -29.43000031   73208.75000
 -29.38249969   73207.53906
 -29.33499908   73206.57031
 -29.28750038   73203.57812
 -29.23999977   73202.20312
 -29.19249916   73203.57031
 -29.14500046   73205.03906
 -29.09749985   73207.06250
 -29.04999924   73211.82031
 -29.00250053   73215.78906
 -28.95499992   73219.27344
 -28.90749931   73222.69531
 -28.86000061   73226.25781
 -28.81250000   73228.62500
 -28.76499939   73227.53125
 -28.71750069   73226.89062
 -28.67000008   73224.21094
 -28.62249947   73219.77344
 -28.57500076   73215.42188
 -28.52750015   73210.54688
 -28.47999954   73206.70312
 -28.43250084   73206.14844
 -28.38500023   73204.31250
 -28.33749962   73207.00781
 -28.29000092   73208.85938
 -28.24250031   73215.78906
 -28.19499969   73221.98438
 -28.14749908   73230.72656
 -28.10000038   73240.09375
 -28.05249977   73250.41406
 -28.00499916   73260.37500
 -27.95750046   73268.03906
 -27.90999985   73277.16406
 -27.86249924   73282.13281
 -27.81500053   73285.15625
 -27.76749992   73287.22656
 -27.71999931   73288.48438
 -27.67250061   73287.89844
 -27.62500000   73286.99219
 -27.57749939   73285.07031
 -27.53000069   73284.42969
 -27.48250008   73284.96094
 -27.43499947   73285.59375
 -27.38750076   73288.66406
 -27.34000015   73292.28906
 -27.29249954   73296.58594
 -27.24500084   73301.44531
 -27.19750023   73308.10938
 -27.14999962   73314.00000
 -27.10250092   73320.78906
 -27.05500031   73327.71875
 -27.00749969   73333.44531
 -26.95999908   73337.88281
 -26.91250038   73342.20312
 -26.86499977   73347.12500
 -26.81749916   73350.31250
 -26.77000046   73353.54688
 -26.72249985   73355.75000
 -26.67499924   73357.28125
 -26.62750053   73357.96875
 -26.57999992   73357.57031
 -26.53249931   73357.71875
 -26.48500061   73359.46875
 -26.43750000   73357.68750
 -26.38999939   73356.63281
 -26.34250069   73357.13281
 -26.29500008   73359.47656
 -26.24749947   73361.09375
 -26.20000076   73365.87500
 -26.15250015   73369.21875
 -26.10499954   73374.35938
 -26.05750084   73378.98438
 -26.01000023   73384.79688
 -25.96249962   73390.85156
 -25.91500092   73395.82812
 -25.86750031   73399.22656
 -25.81999969   73403.60156
 -25.77249908   73406.35156
 -25.72500038   73409.94531
 -25.67749977   73411.09375
 -25.62999916   73412.75781
 -25.58250046   73415.18750
 -25.53499985   73416.46875
 -25.48749924   73417.53906
 -25.44000053   73417.19531
 -25.39249992   73418.91406
 -25.34499931   73418.62500
 -25.29750061   73419.60938
 -25.25000000   73420.78906
 -25.20249939   73424.73438
 -25.15500069   73428.18750
 -25.10750008   73434.73438
 -25.05999947   73441.25000
 -25.01250076   73449.15625
 -24.96500015   73457.76562
 -24.91749954   73466.04688
 -24.87000084   73475.82812
 -24.82250023   73482.45312
 -24.77499962   73491.25000
 -24.72750092   73497.09375
 -24.68000031   73502.75000
 -24.63249969   73506.90625
 -24.58499908   73510.41406
 -24.53750038   73516.11719
 -24.48999977   73519.03125
 -24.44249916   73523.71094
 -24.39500046   73525.80469
 -24.34749985   73529.45312
 -24.29999924   73533.75000
 -24.25250053   73537.63281
 -24.20499992   73539.27344
 -24.15749931   73544.86719
 -24.11000061   73549.49219
 -24.06250000   73554.84375
 -24.01499939   73561.90625
 -23.96750069   73568.99219
 -23.92000008   73573.94531
 -23.87249947   73580.86719
 -23.82500076   73589.96875
 -23.77750015   73595.91406
 -23.72999954   73602.75781
 -23.68250084   73608.43750
 -23.63500023   73613.71094
 -23.58749962   73617.82031
 -23.54000092   73620.40625
 -23.49250031   73622.80469
 -23.44499969   73625.28125
 -23.39749908   73627.40625
 -23.35000038   73630.31250
 -23.30249977   73633.39062
 -23.25499916   73634.16406
 -23.20750046   73637.12500
 -23.15999985   73636.92188
 -23.11249924   73638.42188
 -23.06500053   73638.13281
 -23.01749992   73638.60156
 -22.96999931   73638.25781
 -22.92250061   73640.00781
 -22.87500000   73643.51562
 -22.82749939   73646.18750
 -22.78000069   73653.14062
 -22.73250008   73657.57031
 -22.68499947   73662.87500
 -22.63750076   73670.25781
 -22.59000015   73674.31250
 -22.54249954   73680.47656
 -22.49500084   73686.10156
 -22.44750023   73692.13281
 -22.39999962   73697.49219
 -22.35250092   NAN
 -22.30500031   NAN
 -22.25749969   NAN
 -22.20999908   NAN
 -22.16250038   NAN
 -22.11499977   NAN
 -22.06749916   NAN
 -22.02000046   NAN
 -21.97249985   NAN
 -21.92499924   NAN
 -21.87750053   NAN
 -21.82999992   NAN
 -21.78249931   NAN
 -21.73500061   NAN
 -21.68750000   NAN
 -21.63999939   NAN
 -21.59250069   NAN
 -21.54500008   NAN
 -21.49749947   NAN
 -21.45000076   NAN
 -21.40250015   NAN
 -21.35499954   NAN
 -21.30750084   NAN
 -21.26000023   NAN
 -21.21249962   NAN
 -21.16500092   NAN
 -21.11750031   NAN
 -21.06999969   NAN
 -21.02249908   NAN
 -20.97500038   NAN
 -20.92749977   NAN
 -20.87999916   NAN
 -20.83250046   NAN
 -20.78499985   NAN
 -20.73749924   NAN
 -20.69000053   NAN
 -20.64249992   NAN
 -20.59499931   NAN
 -20.54750061   NAN
 -20.50000000   NAN
 -20.45249939   NAN
 -20.40500069   NAN
 -20.35750008   NAN
 -20.30999947   NAN
 -20.26250076   NAN
 -20.21500015   NAN
 -20.16749954   NAN
 -20.12000084   NAN
 -20.07250023   NAN
 -20.02499962   NAN
 -19.97750092   NAN
 -19.93000031   NAN
 -19.88249969   NAN
 -19.83499908   NAN
 -19.78750038   NAN
 -19.73999977   NAN
 -19.69249916   NAN
 -19.64500046   NAN
 -19.59749985   NAN
 -19.54999924   NAN
 -19.50250053   NAN
 -19.45499992   NAN
 -19.40749931   NAN
 -19.36000061   NAN
 -19.31250000   NAN
 -19.26499939   NAN
 -19.21750069   NAN
 -19.17000008   NAN
 -19.12249947   NAN
 -19.07500076   NAN
 -19.02750015   NAN
 -18.97999954   NAN
 -18.93250084   NAN
 -18.88500023   NAN
 -18.83749962   NAN
 -18.79000092   NAN
 -18.74250031   NAN
 -18.69499969   NAN
 -18.64749908   NAN
 -18.60000038   NAN
 -18.55249977   NAN
 -18.50499916   NAN
 -18.45750046   NAN
 -18.40999985   NAN
 -18.36249924   NAN
 -18.31500053   NAN
 -18.26749992   NAN
 -18.21999931   NAN
 -18.17250061   NAN
 -18.12500000   NAN
 -18.07749939   NAN
 -18.03000069   NAN
 -17.98250008   NAN
 -17.93499947   NAN
 -17.88750076   NAN
 -17.84000015   NAN
 -17.79249954   NAN
 -17.74500084   NAN
 -17.69750023   NAN
 -17.64999962   NAN
 -17.60250092   NAN
 -17.55500031   NAN
 -17.50749969   NAN
 -17.45999908   NAN
 -17.41250038   NAN
 -17.36499977   NAN
 -17.31749916   NAN
 -17.27000046   NAN
 -17.22249985   NAN
 -17.17499924   NAN
 -17.12750053   NAN
 -17.07999992   NAN
 -17.03249931   NAN
 -16.98500061   NAN
 -16.93750000   NAN
 -16.88999939   NAN
 -16.84250069   NAN
 -16.79500008   NAN
 -16.74749947   NAN
 -16.70000076   NAN
 -16.65250015   NAN
 -16.60499954   NAN
 -16.55750084   NAN
 -16.51000023   NAN
 -16.46249962   NAN
 -16.41500092   NAN
 -16.36750031   NAN
 -16.31999969   NAN
 -16.27249908   NAN
 -16.22500038   NAN
 -16.17749977   NAN
 -16.12999916   NAN
 -16.08250046   NAN
 -16.03499985   NAN
 -15.98750019   NAN
 -15.93999958   NAN
 -15.89249992   NAN
 -15.84500027   NAN
 -15.79749966   NAN
