 -30.00000000   -7016879.000
 -29.95249939   -7017233.000
 -29.90500069   -7017581.000
 -29.85750008   -7017927.000
 -29.80999947   -7018273.500
 -29.76250076   -7018620.500
 -29.71500015   -7018970.500
 -29.66749954   -7019324.500
 -29.62000084   -7019681.500
 -29.57250023   -7020038.500
 -29.52499962   -7020397.500
 -29.47750092   -7020753.000
 -29.43000031   -7021104.000
 -29.38249969   -7021452.500
 -29.33499908   -7021794.500
 -29.28750038   -7022136.000
 -29.23999977   -7022475.500
 -29.19249916   -7022815.000
 -29.14500046   -7023159.000
 -29.09749985   -7023506.500
 -29.04999924   -7023860.000
 -29.00250053   -7024217.000
 -28.95499992   -7024575.500
 -28.90749931   -7024935.500
 -28.86000061   -7025290.500
 -28.81250000   -7025640.500
 -28.76499939   -7025987.500
 -28.71750069   -7026330.000
 -28.67000008   -7026666.500
 -28.62249947   -7027005.000
 -28.57500076   -7027344.500
 -28.52750015   -7027684.000
 -28.47999954   -7028030.500
 -28.43250084   -7028380.500
 -28.38500023   -7028736.000
 -28.33749962   -7029093.000
 -28.29000092   -7029448.500
 -28.24250031   -7029802.500
 -28.19499969   -7030153.000
 -28.14749908   -7030499.000
 -28.10000038   -7030837.500
 -28.05249977   -7031175.500
 -28.00499916   -7031510.500
 -27.95750046   -7031844.000
 -27.90999985   -7032183.500
 -27.86249924   -7032527.500
 -27.81500053   -7032873.000
 -27.76749992   -7033224.500
 -27.71999931   -7033578.500
 -27.67250061   -7033931.500
 -27.62500000   -7034284.000
 -27.57749939   -7034632.000
 -27.53000069   -7034974.500
 -27.48250008   -7035313.000
 -27.43499947   -7035649.500
 -27.38750076   -7035983.000
 -27.34000015   -7036319.500
 -27.29249954   -7036659.000
 -27.24500084   -7037005.500
 -27.19750023   -7037351.500
 -27.14999962   -7037704.000
 -27.10250092   -7038057.000
 -27.05500031   -7038411.000
 -27.00749969   -7038761.000
 -26.95999908   -7039107.500
 -26.91250038   -7039450.000
 -26.86499977   -7039789.000
 -26.81749916   -7040126.000
 -26.77000046   -7040462.500
 -26.72249985   -7040803.500
 -26.67499924   -7041146.500
 -26.62750053   -7041494.500
 -26.57999992   -7041848.000
 -26.53249931   -7042204.000
 -26.48500061   -7042561.500
 -26.43750000   -7042916.500
 -26.38999939   -7043268.000
 -26.34250069   -7043616.000
 -26.29500008   -7043957.500
 -26.24749947   -7044296.500
 -26.20000076   -7044634.500
 -26.15250015   -7044975.500
 -26.10499954   -7045316.500
 -26.05750084   -7045663.500
 -26.01000023   -7046014.500
 -25.96249962   -7046370.500
 -25.91500092   -7046726.000
 -25.86750031   -7047083.000
 -25.81999969   -7047437.000
 -25.77249908   -7047787.000
 -25.72500038   -7048132.500
 -25.67749977   -7048476.000
 -25.62999916   -7048813.500
 -25.58250046   -7049151.000
 -25.53499985   -7049489.000
 -25.48749924   -7049830.500
 -25.44000053   -7050177.000
 -25.39249992   -7050526.500
 -25.34499931   -7050878.000
 -25.29750061   -7051229.000
 -25.25000000   -7051581.500
 -25.20249939   -7051930.000
 -25.15500069   -7052274.000
 -25.10750008   -7052616.500
 -25.05999947   -7052956.500
 -25.01250076   -7053294.500
 -24.96500015   -7053633.500
 -24.91749954   -7053977.500
 -24.87000084   -7054324.500
 -24.82250023   -7054674.500
 -24.77499962   -7055031.000
 -24.72750092   -7055391.000
 -24.68000031   -7055750.000
 -24.63249969   -7056107.000
 -24.58499908   -7056462.500
 -24.53750038   -7056815.500
 -24.48999977   -7057162.500
 -24.44249916   -7057509.000
 -24.39500046   -7057851.500
 -24.34749985   -7058196.500
 -24.29999924   -7058542.000
 -24.25250053   -7058891.500
 -24.20499992   -7059244.500
 -24.15749931   -7059599.000
 -24.11000061   -7059957.500
 -24.06250000   -7060313.000
 -24.01499939   -7060667.500
 -23.96750069   -7061019.500
 -23.92000008   -7061366.500
 -23.87249947   -7061714.500
 -23.82500076   -7062057.500
 -23.77750015   -7062403.000
 -23.72999954   -7062750.000
 -23.68250084   -7063100.500
 -23.63500023   -7063454.500
 -23.58749962   -7063812.000
 -23.54000092   -7064170.500
 -23.49250031   -7064529.500
 -23.44499969   -7064889.500
 -23.39749908   -7065246.500
 -23.35000038   -7065600.000
 -23.30249977   -7065950.500
 -23.25499916   -7066300.000
 -23.20750046   -7066646.500
 -23.15999985   -7066993.500
 -23.11249924   -7067346.000
 -23.06500053   -7067697.500
 -23.01749992   -7068054.500
 -22.96999931   -7068413.000
 -22.92250061   -7068770.000
 -22.87500000   -7069126.000
 -22.82749939   -7069480.000
 -22.78000069   -7069831.000
 -22.73250008   -7070177.000
 -22.68499947   -7070522.000
 -22.63750076   -7070865.500
 -22.59000015   -7071212.500
 -22.54249954   -7071561.000
 -22.49500084   -7071912.000
 -22.44750023   -7072266.000
 -22.39999962   -7072621.000
 -22.35250092   NAN
 -22.30500031   NAN
 -22.25749969   NAN
 -22.20999908   NAN
 -22.16250038   NAN
 -22.11499977   NAN
 -22.06749916   NAN
 -22.02000046   NAN
 -21.97249985   NAN
 -21.92499924   NAN
 -21.87750053   NAN
 -21.82999992   NAN
 -21.78249931   NAN
 -21.73500061   NAN
 -21.68750000   NAN
 -21.63999939   NAN
 -21.59250069   NAN
 -21.54500008   NAN
 -21.49749947   NAN
 -21.45000076   NAN
 -21.40250015   NAN
 -21.35499954   NAN
 -21.30750084   NAN
 -21.26000023   NAN
 -21.21249962   NAN
 -21.16500092   NAN
 -21.11750031   NAN
 -21.06999969   NAN
 -21.02249908   NAN
 -20.97500038   NAN
 -20.92749977   NAN
 -20.87999916   NAN
 -20.83250046   NAN
 -20.78499985   NAN
 -20.73749924   NAN
 -20.69000053   NAN
 -20.64249992   NAN
 -20.59499931   NAN
 -20.54750061   NAN
 -20.50000000   NAN
 -20.45249939   NAN
 -20.40500069   NAN
 -20.35750008   NAN
 -20.30999947   NAN
 -20.26250076   NAN
 -20.21500015   NAN
 -20.16749954   NAN
 -20.12000084   NAN
 -20.07250023   NAN
 -20.02499962   NAN
 -19.97750092   NAN
 -19.93000031   NAN
 -19.88249969   NAN
 -19.83499908   NAN
 -19.78750038   NAN
 -19.73999977   NAN
 -19.69249916   NAN
 -19.64500046   NAN
 -19.59749985   NAN
 -19.54999924   NAN
 -19.50250053   NAN
 -19.45499992   NAN
 -19.40749931   NAN
 -19.36000061   NAN
 -19.31250000   NAN
 -19.26499939   NAN
 -19.21750069   NAN
 -19.17000008   NAN
 -19.12249947   NAN
 -19.07500076   NAN
 -19.02750015   NAN
 -18.97999954   NAN
 -18.93250084   NAN
 -18.88500023   NAN
 -18.83749962   NAN
 -18.79000092   NAN
 -18.74250031   NAN
 -18.69499969   NAN
 -18.64749908   NAN
 -18.60000038   NAN
 -18.55249977   NAN
 -18.50499916   NAN
 -18.45750046   NAN
 -18.40999985   NAN
 -18.36249924   NAN
 -18.31500053   NAN
 -18.26749992   NAN
 -18.21999931   NAN
 -18.17250061   NAN
 -18.12500000   NAN
 -18.07749939   NAN
 -18.03000069   NAN
 -17.98250008   NAN
 -17.93499947   NAN
 -17.88750076   NAN
 -17.84000015   NAN
 -17.79249954   NAN
 -17.74500084   NAN
 -17.69750023   NAN
 -17.64999962   NAN
 -17.60250092   NAN
 -17.55500031   NAN
 -17.50749969   NAN
 -17.45999908   NAN
 -17.41250038   NAN
 -17.36499977   NAN
 -17.31749916   NAN
 -17.27000046   NAN
 -17.22249985   NAN
 -17.17499924   NAN
 -17.12750053   NAN
 -17.07999992   NAN
 -17.03249931   NAN
 -16.98500061   NAN
 -16.93750000   NAN
 -16.88999939   NAN
 -16.84250069   NAN
 -16.79500008   NAN
 -16.74749947   NAN
 -16.70000076   NAN
 -16.65250015   NAN
 -16.60499954   NAN
 -16.55750084   NAN
 -16.51000023   NAN
 -16.46249962   NAN
 -16.41500092   NAN
 -16.36750031   NAN
 -16.31999969   NAN
 -16.27249908   NAN
 -16.22500038   NAN
 -16.17749977   NAN
 -16.12999916   NAN
 -16.08250046   NAN
 -16.03499985   NAN
 -15.98750019   NAN
 -15.93999958   NAN
 -15.89249992   NAN
 -15.84500027   NAN
 -15.79749966   NAN
