 -30.00000000   8517008.000
 -29.95249939   8517446.000
 -29.90500069   8517890.000
 -29.85750008   8518336.000
 -29.80999947   8518787.000
 -29.76250076   8519240.000
 -29.71500015   8519696.000
 -29.66749954   8520153.000
 -29.62000084   8520609.000
 -29.57250023   8521064.000
 -29.52499962   8521519.000
 -29.47750092   8521972.000
 -29.43000031   8522421.000
 -29.38249969   8522866.000
 -29.33499908   8523308.000
 -29.28750038   8523748.000
 -29.23999977   8524184.000
 -29.19249916   8524622.000
 -29.14500046   8525058.000
 -29.09749985   8525495.000
 -29.04999924   8525933.000
 -29.00250053   8526376.000
 -28.95499992   8526822.000
 -28.90749931   8527273.000
 -28.86000061   8527728.000
 -28.81250000   8528189.000
 -28.76499939   8528654.000
 -28.71750069   8529123.000
 -28.67000008   8529594.000
 -28.62249947   8530068.000
 -28.57500076   8530540.000
 -28.52750015   8531011.000
 -28.47999954   8531478.000
 -28.43250084   8531939.000
 -28.38500023   8532395.000
 -28.33749962   8532845.000
 -28.29000092   8533287.000
 -28.24250031   8533725.000
 -28.19499969   8534157.000
 -28.14749908   8534585.000
 -28.10000038   8535013.000
 -28.05249977   8535439.000
 -28.00499916   8535869.000
 -27.95750046   8536301.000
 -27.90999985   8536739.000
 -27.86249924   8537181.000
 -27.81500053   8537631.000
 -27.76749992   8538085.000
 -27.71999931   8538545.000
 -27.67250061   8539009.000
 -27.62500000   8539476.000
 -27.57749939   8539943.000
 -27.53000069   8540413.000
 -27.48250008   8540879.000
 -27.43499947   8541345.000
 -27.38750076   8541805.000
 -27.34000015   8542260.000
 -27.29249954   8542711.000
 -27.24500084   8543157.000
 -27.19750023   8543597.000
 -27.14999962   8544031.000
 -27.10250092   8544468.000
 -27.05500031   8544898.000
 -27.00749969   8545327.000
 -26.95999908   8545757.000
 -26.91250038   8546189.000
 -26.86499977   8546623.000
 -26.81749916   8547062.000
 -26.77000046   8547503.000
 -26.72249985   8547948.000
 -26.67499924   8548397.000
 -26.62750053   8548852.000
 -26.57999992   8549310.000
 -26.53249931   8549771.000
 -26.48500061   8550231.000
 -26.43750000   8550695.000
 -26.38999939   8551157.000
 -26.34250069   8551617.000
 -26.29500008   8552078.000
 -26.24749947   8552532.000
 -26.20000076   8552982.000
 -26.15250015   8553427.000
 -26.10499954   8553867.000
 -26.05750084   8554303.000
 -26.01000023   8554735.000
 -25.96249962   8555166.000
 -25.91500092   8555596.000
 -25.86750031   8556026.000
 -25.81999969   8556456.000
 -25.77249908   8556891.000
 -25.72500038   8557327.000
 -25.67749977   8557769.000
 -25.62999916   8558214.000
 -25.58250046   8558663.000
 -25.53499985   8559116.000
 -25.48749924   8559570.000
 -25.44000053   8560029.000
 -25.39249992   8560490.000
 -25.34499931   8560951.000
 -25.29750061   8561412.000
 -25.25000000   8561869.000
 -25.20249939   8562327.000
 -25.15500069   8562780.000
 -25.10750008   8563233.000
 -25.05999947   8563680.000
 -25.01250076   8564122.000
 -24.96500015   8564564.000
 -24.91749954   8565000.000
 -24.87000084   8565432.000
 -24.82250023   8565865.000
 -24.77499962   8566297.000
 -24.72750092   8566728.000
 -24.68000031   8567160.000
 -24.63249969   8567596.000
 -24.58499908   8568033.000
 -24.53750038   8568474.000
 -24.48999977   8568919.000
 -24.44249916   8569368.000
 -24.39500046   8569822.000
 -24.34749985   8570278.000
 -24.29999924   8570738.000
 -24.25250053   8571200.000
 -24.20499992   8571662.000
 -24.15749931   8572123.000
 -24.11000061   8572583.000
 -24.06250000   8573038.000
 -24.01499939   8573489.000
 -23.96750069   8573935.000
 -23.92000008   8574375.000
 -23.87249947   8574808.000
 -23.82500076   8575239.000
 -23.77750015   8575663.000
 -23.72999954   8576086.000
 -23.68250084   8576508.000
 -23.63500023   8576932.000
 -23.58749962   8577357.000
 -23.54000092   8577785.000
 -23.49250031   8578216.000
 -23.44499969   8578654.000
 -23.39749908   8579097.000
 -23.35000038   8579544.000
 -23.30249977   8579996.000
 -23.25499916   8580454.000
 -23.20750046   8580914.000
 -23.15999985   8581375.000
 -23.11249924   8581836.000
 -23.06500053   8582295.000
 -23.01749992   8582754.000
 -22.96999931   8583205.000
 -22.92250061   8583651.000
 -22.87500000   8584091.000
 -22.82749939   8584526.000
 -22.78000069   8584953.000
 -22.73250008   8585379.000
 -22.68499947   8585799.000
 -22.63750076   8586217.000
 -22.59000015   8586639.000
 -22.54249954   8587060.000
 -22.49500084   8587486.000
 -22.44750023   8587914.000
 -22.39999962   8588350.000
 -22.35250092   NAN
 -22.30500031   NAN
 -22.25749969   NAN
 -22.20999908   NAN
 -22.16250038   NAN
 -22.11499977   NAN
 -22.06749916   NAN
 -22.02000046   NAN
 -21.97249985   NAN
 -21.92499924   NAN
 -21.87750053   NAN
 -21.82999992   NAN
 -21.78249931   NAN
 -21.73500061   NAN
 -21.68750000   NAN
 -21.63999939   NAN
 -21.59250069   NAN
 -21.54500008   NAN
 -21.49749947   NAN
 -21.45000076   NAN
 -21.40250015   NAN
 -21.35499954   NAN
 -21.30750084   NAN
 -21.26000023   NAN
 -21.21249962   NAN
 -21.16500092   NAN
 -21.11750031   NAN
 -21.06999969   NAN
 -21.02249908   NAN
 -20.97500038   NAN
 -20.92749977   NAN
 -20.87999916   NAN
 -20.83250046   NAN
 -20.78499985   NAN
 -20.73749924   NAN
 -20.69000053   NAN
 -20.64249992   NAN
 -20.59499931   NAN
 -20.54750061   NAN
 -20.50000000   NAN
 -20.45249939   NAN
 -20.40500069   NAN
 -20.35750008   NAN
 -20.30999947   NAN
 -20.26250076   NAN
 -20.21500015   NAN
 -20.16749954   NAN
 -20.12000084   NAN
 -20.07250023   NAN
 -20.02499962   NAN
 -19.97750092   NAN
 -19.93000031   NAN
 -19.88249969   NAN
 -19.83499908   NAN
 -19.78750038   NAN
 -19.73999977   NAN
 -19.69249916   NAN
 -19.64500046   NAN
 -19.59749985   NAN
 -19.54999924   NAN
 -19.50250053   NAN
 -19.45499992   NAN
 -19.40749931   NAN
 -19.36000061   NAN
 -19.31250000   NAN
 -19.26499939   NAN
 -19.21750069   NAN
 -19.17000008   NAN
 -19.12249947   NAN
 -19.07500076   NAN
 -19.02750015   NAN
 -18.97999954   NAN
 -18.93250084   NAN
 -18.88500023   NAN
 -18.83749962   NAN
 -18.79000092   NAN
 -18.74250031   NAN
 -18.69499969   NAN
 -18.64749908   NAN
 -18.60000038   NAN
 -18.55249977   NAN
 -18.50499916   NAN
 -18.45750046   NAN
 -18.40999985   NAN
 -18.36249924   NAN
 -18.31500053   NAN
 -18.26749992   NAN
 -18.21999931   NAN
 -18.17250061   NAN
 -18.12500000   NAN
 -18.07749939   NAN
 -18.03000069   NAN
 -17.98250008   NAN
 -17.93499947   NAN
 -17.88750076   NAN
 -17.84000015   NAN
 -17.79249954   NAN
 -17.74500084   NAN
 -17.69750023   NAN
 -17.64999962   NAN
 -17.60250092   NAN
 -17.55500031   NAN
 -17.50749969   NAN
 -17.45999908   NAN
 -17.41250038   NAN
 -17.36499977   NAN
 -17.31749916   NAN
 -17.27000046   NAN
 -17.22249985   NAN
 -17.17499924   NAN
 -17.12750053   NAN
 -17.07999992   NAN
 -17.03249931   NAN
 -16.98500061   NAN
 -16.93750000   NAN
 -16.88999939   NAN
 -16.84250069   NAN
 -16.79500008   NAN
 -16.74749947   NAN
 -16.70000076   NAN
 -16.65250015   NAN
 -16.60499954   NAN
 -16.55750084   NAN
 -16.51000023   NAN
 -16.46249962   NAN
 -16.41500092   NAN
 -16.36750031   NAN
 -16.31999969   NAN
 -16.27249908   NAN
 -16.22500038   NAN
 -16.17749977   NAN
 -16.12999916   NAN
 -16.08250046   NAN
 -16.03499985   NAN
 -15.98750019   NAN
 -15.93999958   NAN
 -15.89249992   NAN
 -15.84500027   NAN
 -15.79749966   NAN
